# LAMMPS data
1912 atoms
7 atom types

1272 bonds
3 bond types  # defined bond types: O-H,C-H,N-H, detected bond types: O-H,C-H,N-H

-15.7075 15.7075  xlo xhi
-17.0585 17.0585  ylo yhi
-14.645 14.645  zlo zhi
0.0 0.0 0.0 xy xz yz

Masses

1  1.008        # H
2 12.010700     # C
3 14.0067       # N
4 15.999        # O
5 32.06         # S
6 18.998403163  # F
7 35.45         # Cl

Atoms

1	1	1	-2.017	-3.902	0.637	# H
2	1	2	-2.017	-2.812	0.637	# C
3	1	1	-2.531	-2.448	1.527	# H
4	1	1	-2.531	-2.448	-0.253	# H
5	1	2	-0.59	-2.261	0.637	# C
6	1	4	0.374	-3.025	0.637	# O
7	2	3	-0.462	-0.932	0.637	# N
8	2	1	-1.284	-0.346	0.637	# H
9	2	2	0.836	-0.288	0.637	# C
10	2	1	1.391	-0.586	1.527	# H
11	2	2	1.644	-0.681	-0.595	# C
12	2	1	1.106	-0.381	-1.494	# H
13	2	1	2.613	-0.183	-0.569	# H
14	2	1	1.792	-1.761	-0.604	# H
15	2	2	0.696	1.227	0.637	# C
16	2	4	-0.416	1.751	0.637	# O
17	3	3	1.829	1.933	0.637	# N
18	3	1	2.72	1.457	0.637	# H
19	3	2	1.829	3.382	0.637	# C
20	3	1	0.802	3.746	0.637	# H
21	3	1	2.343	3.746	1.527	# H
22	3	1	2.343	3.746	-0.253	# H
23	4	4	12.157	8.54	7.797	# O
24	4	1	12.076	7.625	7.526	# H
25	4	1	11.743	9.037	7.09	# H
26	5	4	10.289	10.318	9.677	# O
27	5	1	9.513	9.838	9.967	# H
28	5	1	10.94	9.638	9.503	# H
29	6	4	4.305	10.63	10.555	# O
30	6	1	3.474	10.375	10.955	# H
31	6	1	4.913	10.701	11.291	# H
32	7	4	4.285	14.664	10.751	# O
33	7	1	4.588	13.774	10.572	# H
34	7	1	5.03	15.221	10.523	# H
35	8	4	2.714	5.59	4.339	# O
36	8	1	1.826	5.932	4.237	# H
37	8	1	2.998	5.39	3.447	# H
38	9	4	0.678	8.191	10.223	# O
39	9	1	1.249	7.423	10.224	# H
40	9	1	0.678	8.489	9.314	# H
41	10	4	9.729	12.994	9.684	# O
42	10	1	9.66	12.053	9.523	# H
43	10	1	10.491	13.084	10.257	# H
44	11	4	1.92	3.599	12.01	# O
45	11	1	1.74	2.702	12.29	# H
46	11	1	1.518	4.146	12.685	# H
47	12	4	10.76	5.801	9.911	# O
48	12	1	11.136	4.928	9.799	# H
49	12	1	10.662	6.136	9.02	# H
50	13	4	4.89	4.173	5.373	# O
51	13	1	4.997	5.074	5.68	# H
52	13	1	3.98	4.125	5.083	# H
53	14	4	2.539	6.095	10.618	# O
54	14	1	3.22	6.359	11.237	# H
55	14	1	2.224	5.255	10.952	# H
56	15	4	6.731	7.142	9.706	# O
57	15	1	7.239	7.64	10.346	# H
58	15	1	7.263	6.365	9.53	# H
59	16	4	11.402	11.894	5.471	# O
60	16	1	10.784	12.359	4.907	# H
61	16	1	11.914	12.586	5.888	# H
62	17	4	6.265	11.421	12.149	# O
63	17	1	5.932	12.048	12.791	# H
64	17	1	6.442	11.947	11.369	# H
65	18	4	4.696	3.493	11.979	# O
66	18	1	5.038	4.337	11.684	# H
67	18	1	3.758	3.641	12.096	# H
68	19	4	0.77	12.579	2.845	# O
69	19	1	0.393	13.068	2.113	# H
70	19	1	1.028	13.252	3.476	# H
71	20	4	8.379	0.981	8.303	# O
72	20	1	8.687	0.426	7.587	# H
73	20	1	7.449	1.115	8.121	# H
74	21	4	13.329	11.601	11.922	# O
75	21	1	13.746	11.387	11.088	# H
76	21	1	14.053	11.858	12.493	# H
77	22	4	10.767	9.046	5.039	# O
78	22	1	9.84	8.979	5.268	# H
79	22	1	10.92	9.984	4.925	# H
80	23	4	10.754	5.317	2.036	# O
81	23	1	9.814	5.479	2.121	# H
82	23	1	11.072	6.036	1.49	# H
83	24	4	6.373	9.572	7.821	# O
84	24	1	5.969	8.86	7.326	# H
85	24	1	6.459	9.228	8.71	# H
86	25	4	6.841	13.259	9.985	# O
87	25	1	6.544	12.654	9.306	# H
88	25	1	7.791	13.297	9.874	# H
89	26	4	5.086	6.347	11.601	# O
90	26	1	5.637	6.456	10.827	# H
91	26	1	5.6	6.72	12.317	# H
92	27	4	12.973	9.846	2.55	# O
93	27	1	13.413	9.009	2.404	# H
94	27	1	13.686	10.479	2.637	# H
95	28	4	3.073	8.467	5.322	# O
96	28	1	2.953	9.193	4.71	# H
97	28	1	2.763	7.697	4.845	# H
98	29	4	0.712	11.638	11.129	# O
99	29	1	0.79	11.773	10.185	# H
100	29	1	1.326	10.93	11.322	# H
101	30	4	1.957	13.338	7.54	# O
102	30	1	1.549	13.48	6.685	# H
103	30	1	2.848	13.054	7.337	# H
104	31	4	5.54	1.81	8.704	# O
105	31	1	5.097	2.591	8.373	# H
106	31	1	6.098	2.133	9.412	# H
107	32	4	8.656	1.431	3.585	# O
108	32	1	8.031	1.427	4.31	# H
109	32	1	8.569	0.564	3.189	# H
110	33	4	7.577	2.355	10.563	# O
111	33	1	7.875	3.261	10.483	# H
112	33	1	8.126	1.867	9.949	# H
113	34	4	5.331	6.934	6.433	# O
114	34	1	5.105	6.717	7.337	# H
115	34	1	4.55	7.366	6.087	# H
116	35	4	12.561	6.94	5.032	# O
117	35	1	11.962	7.663	4.848	# H
118	35	1	13.109	6.878	4.249	# H
119	36	4	11.167	5.576	7.062	# O
120	36	1	11.56	5.893	6.249	# H
121	36	1	11.529	4.697	7.176	# H
122	37	4	0.204	2.166	9.285	# O
123	37	1	-0.085	2.737	9.998	# H
124	37	1	0.948	1.687	9.648	# H
125	38	4	11.753	8.167	11.157	# O
126	38	1	11.021	8.676	11.506	# H
127	38	1	11.355	7.35	10.856	# H
128	39	4	8.191	4.842	9.562	# O
129	39	1	8.194	4.401	8.713	# H
130	39	1	9.086	5.164	9.669	# H
131	40	4	4.041	4.725	8.522	# O
132	40	1	3.701	5.202	9.278	# H
133	40	1	3.279	4.271	8.162	# H
134	41	4	8.253	5.843	2.553	# O
135	41	1	8.374	5.802	3.502	# H
136	41	1	7.867	6.706	2.398	# H
137	42	4	12.215	3.62	10.569	# O
138	42	1	12.233	4.071	11.414	# H
139	42	1	11.967	2.721	10.783	# H
140	43	4	7.265	8.154	1.951	# O
141	43	1	6.696	7.705	1.325	# H
142	43	1	7.974	8.513	1.418	# H
143	44	4	8.491	8.902	11.309	# O
144	44	1	8.858	8.428	12.055	# H
145	44	1	8.302	9.777	11.65	# H
146	45	4	1.355	3.647	7.438	# O
147	45	1	1.07	3.282	8.276	# H
148	45	1	1.293	2.915	6.825	# H
149	46	4	4.81	12.149	4.224	# O
150	46	1	4.036	11.609	4.064	# H
151	46	1	5.539	11.63	3.886	# H
152	47	4	11.029	2.54	4.16	# O
153	47	1	10.216	2.041	4.084	# H
154	47	1	10.836	3.38	3.743	# H
155	48	4	4.853	11.817	7.862	# O
156	48	1	5.371	11.014	7.808	# H
157	48	1	4.402	11.755	8.704	# H
158	49	4	9.74	13.084	3.135	# O
159	49	1	10.082	13.828	2.639	# H
160	49	1	8.912	13.397	3.497	# H
161	50	4	12.623	12.406	8.499	# O
162	50	1	12.975	11.808	7.839	# H
163	50	1	11.739	12.08	8.67	# H
164	51	4	8.709	13.165	5.906	# O
165	51	1	9.396	13.712	6.287	# H
166	51	1	7.923	13.709	5.941	# H
167	52	4	0.849	8.783	1.398	# O
168	52	1	1.718	9.065	1.681	# H
169	52	1	0.358	9.596	1.283	# H
170	53	4	8.012	10.17	5.519	# O
171	53	1	8.468	10.981	5.745	# H
172	53	1	7.661	9.852	6.351	# H
173	54	4	3.913	0.514	5.991	# O
174	54	1	3.785	0.506	6.939	# H
175	54	1	3.089	0.852	5.64	# H
176	55	4	11.588	13.684	11.466	# O
177	55	1	12.231	12.983	11.579	# H
178	55	1	12.113	14.464	11.285	# H
179	56	4	2.833	10.6	3.526	# O
180	56	1	2.226	11.34	3.536	# H
181	56	1	3.308	10.69	2.7	# H
182	57	4	7.741	5.999	5.426	# O
183	57	1	7.033	6.468	5.868	# H
184	57	1	8.026	5.342	6.061	# H
185	58	4	11.773	2.724	6.866	# O
186	58	1	11.649	2.743	5.917	# H
187	58	1	12.721	2.772	6.986	# H
188	59	4	5.945	4.308	2.801	# O
189	59	1	6.794	4.745	2.735	# H
190	59	1	5.578	4.62	3.629	# H
191	60	4	4.844	10.561	1.275	# O
192	60	1	5.61	10.449	1.837	# H
193	60	1	4.921	9.865	0.623	# H
194	61	4	3.538	7.994	1.958	# O
195	61	1	3.619	7.046	2.07	# H
196	61	1	4.43	8.324	2.064	# H
197	62	4	1.224	14.211	4.936	# O
198	62	1	0.298	14.453	4.926	# H
199	62	1	1.69	15.038	4.814	# H
200	63	4	7.968	12.537	0.748	# O
201	63	1	7.863	11.922	1.475	# H
202	63	1	7.8	12.013	-0.035	# H
203	64	4	11.208	11.599	1.353	# O
204	64	1	10.659	12.046	1.997	# H
205	64	1	11.83	11.094	1.876	# H
206	65	4	6.876	10.558	3.249	# O
207	65	1	7.297	10.392	4.092	# H
208	65	1	7.001	9.748	2.755	# H
209	66	4	9.388	9.581	0.497	# O
210	66	1	9.909	8.866	0.131	# H
211	66	1	10.035	10.22	0.797	# H
212	67	4	5.772	6.631	0.195	# O
213	67	1	5.57	5.768	0.556	# H
214	67	1	5.601	6.544	-0.743	# H
215	68	4	13.25	1.442	2.724	# O
216	68	1	13.531	0.599	3.08	# H
217	68	1	12.477	1.674	3.238	# H
218	69	4	7.788	2.675	1.168	# O
219	69	1	7.44	1.997	0.589	# H
220	69	1	7.99	2.213	1.983	# H
221	70	4	3.593	13.035	1.016	# O
222	70	1	4.03	13.578	1.672	# H
223	70	1	4.078	12.21	1.025	# H
224	71	4	5.404	14.155	6.128	# O
225	71	1	5.103	14.032	7.028	# H
226	71	1	5.297	13.296	5.72	# H
227	72	4	1.129	9.203	7.565	# O
228	72	1	0.474	8.934	6.921	# H
229	72	1	1.967	9.094	7.115	# H
230	73	4	2.166	9.589	12.105	# O
231	73	1	2.534	9.501	12.985	# H
232	73	1	1.598	8.825	12.006	# H
233	74	4	0.343	6.413	3.507	# O
234	74	1	-0.561	6.676	3.333	# H
235	74	1	0.827	6.684	2.727	# H
236	75	4	2.222	0.774	10.359	# O
237	75	1	2.87	0.224	9.919	# H
238	75	1	2.642	1.029	11.181	# H
239	76	4	10.613	1.258	11.529	# O
240	76	1	9.831	1.733	11.809	# H
241	76	1	10.32	0.354	11.421	# H
242	77	4	8.499	3.677	7.041	# O
243	77	1	7.686	3.303	6.7	# H
244	77	1	9.003	2.921	7.343	# H
245	78	4	13.001	0.341	8.279	# O
246	78	1	13.604	0.913	8.754	# H
247	78	1	12.261	0.905	8.057	# H
248	79	4	6.524	1.827	5.645	# O
249	79	1	5.894	1.126	5.812	# H
250	79	1	5.984	2.587	5.429	# H
251	80	4	4.702	14.489	2.872	# O
252	80	1	4.073	14.958	3.421	# H
253	80	1	4.817	13.644	3.307	# H
254	81	4	12.157	8.54	-10.978	# O
255	81	1	12.076	7.625	-11.249	# H
256	81	1	11.743	9.037	-11.684	# H
257	82	4	10.289	10.318	-9.097	# O
258	82	1	9.513	9.838	-8.807	# H
259	82	1	10.94	9.638	-9.271	# H
260	83	4	4.305	10.63	-8.219	# O
261	83	1	3.474	10.375	-7.82	# H
262	83	1	4.913	10.701	-7.484	# H
263	84	4	4.285	14.664	-8.024	# O
264	84	1	4.588	13.774	-8.203	# H
265	84	1	5.03	15.221	-8.251	# H
266	85	4	0.678	8.191	-8.551	# O
267	85	1	1.249	7.423	-8.551	# H
268	85	1	0.678	8.489	-9.46	# H
269	86	4	9.729	12.994	-9.09	# O
270	86	1	9.66	12.053	-9.251	# H
271	86	1	10.491	13.084	-8.518	# H
272	87	4	1.92	3.599	-6.764	# O
273	87	1	1.74	2.702	-6.484	# H
274	87	1	1.518	4.146	-6.09	# H
275	88	4	10.76	5.801	-8.863	# O
276	88	1	11.136	4.928	-8.976	# H
277	88	1	10.662	6.136	-9.754	# H
278	89	4	2.539	6.095	-8.156	# O
279	89	1	3.22	6.359	-7.537	# H
280	89	1	2.224	5.255	-7.822	# H
281	90	4	6.731	7.142	-9.069	# O
282	90	1	7.239	7.64	-8.428	# H
283	90	1	7.263	6.365	-9.245	# H
284	91	4	5.015	1.782	-4.802	# O
285	91	1	5.017	2.299	-5.608	# H
286	91	1	4.185	1.305	-4.825	# H
287	92	4	6.265	11.421	-6.625	# O
288	92	1	5.932	12.048	-5.983	# H
289	92	1	6.442	11.947	-7.405	# H
290	93	4	4.696	3.493	-6.795	# O
291	93	1	5.038	4.337	-7.09	# H
292	93	1	3.758	3.641	-6.679	# H
293	94	4	5.477	13.389	-4.81	# O
294	94	1	6.094	14.064	-5.092	# H
295	94	1	4.616	13.798	-4.901	# H
296	95	4	8.379	0.981	-10.471	# O
297	95	1	8.687	0.426	-11.187	# H
298	95	1	7.449	1.115	-10.654	# H
299	96	4	13.329	11.601	-6.852	# O
300	96	1	13.746	11.387	-7.687	# H
301	96	1	14.053	11.858	-6.281	# H
302	97	4	6.373	9.572	-10.953	# O
303	97	1	5.969	8.86	-11.448	# H
304	97	1	6.459	9.228	-10.064	# H
305	98	4	6.841	13.259	-8.789	# O
306	98	1	6.544	12.654	-9.468	# H
307	98	1	7.791	13.297	-8.9	# H
308	99	4	5.086	6.347	-7.173	# O
309	99	1	5.637	6.456	-7.948	# H
310	99	1	5.6	6.72	-6.457	# H
311	100	4	5.933	12.997	-2.138	# O
312	100	1	5.036	13.221	-1.891	# H
313	100	1	5.958	13.121	-3.087	# H
314	101	4	4.76	9.868	-3.562	# O
315	101	1	4.621	10.741	-3.194	# H
316	101	1	3.878	9.526	-3.708	# H
317	102	4	0.712	11.638	-7.645	# O
318	102	1	0.79	11.773	-8.59	# H
319	102	1	1.326	10.93	-7.453	# H
320	103	4	1.957	13.338	-11.235	# O
321	103	1	1.549	13.48	-12.089	# H
322	103	1	2.848	13.054	-11.438	# H
323	104	4	0.768	12.68	-5.106	# O
324	104	1	0.931	12.21	-5.924	# H
325	104	1	1.233	12.172	-4.441	# H
326	105	4	5.54	1.81	-10.07	# O
327	105	1	5.097	2.591	-10.401	# H
328	105	1	6.098	2.133	-9.363	# H
329	106	4	9.827	4.677	-4.466	# O
330	106	1	9.365	4.885	-3.654	# H
331	106	1	9.424	3.863	-4.769	# H
332	107	4	11.922	7.398	-1.237	# O
333	107	1	12.247	6.565	-1.577	# H
334	107	1	12.71	7.921	-1.089	# H
335	108	4	7.577	2.355	-8.211	# O
336	108	1	7.875	3.261	-8.292	# H
337	108	1	8.126	1.867	-8.825	# H
338	109	4	5.331	6.934	-12.342	# O
339	109	1	5.105	6.717	-11.437	# H
340	109	1	4.55	7.366	-12.687	# H
341	110	4	7.771	7.832	-1.676	# O
342	110	1	7.675	6.892	-1.826	# H
343	110	1	8.614	8.054	-2.071	# H
344	111	4	11.167	5.576	-11.712	# O
345	111	1	11.56	5.893	-12.525	# H
346	111	1	11.529	4.697	-11.598	# H
347	112	4	2.902	4.243	-3.522	# O
348	112	1	2.508	5.091	-3.315	# H
349	112	1	2.214	3.606	-3.331	# H
350	113	4	9.477	4.327	-0.453	# O
351	113	1	8.786	4.134	0.182	# H
352	113	1	10.22	4.61	0.08	# H
353	114	4	0.204	2.166	-9.489	# O
354	114	1	-0.085	2.737	-8.777	# H
355	114	1	0.948	1.687	-9.126	# H
356	115	4	11.753	8.167	-7.617	# O
357	115	1	11.021	8.676	-7.268	# H
358	115	1	11.355	7.35	-7.918	# H
359	116	4	8.191	4.842	-9.212	# O
360	116	1	8.194	4.401	-10.062	# H
361	116	1	9.086	5.164	-9.105	# H
362	117	4	4.041	4.725	-10.253	# O
363	117	1	3.701	5.202	-9.496	# H
364	117	1	3.279	4.271	-10.613	# H
365	118	4	12.215	3.62	-8.205	# O
366	118	1	12.233	4.071	-7.361	# H
367	118	1	11.967	2.721	-7.992	# H
368	119	4	2.342	12.055	-2.946	# O
369	119	1	1.957	11.414	-2.348	# H
370	119	1	2.653	12.758	-2.377	# H
371	120	4	8.491	8.902	-7.465	# O
372	120	1	8.858	8.428	-6.719	# H
373	120	1	8.302	9.777	-7.125	# H
374	121	4	1.355	3.647	-11.336	# O
375	121	1	1.07	3.282	-10.498	# H
376	121	1	1.293	2.915	-11.95	# H
377	122	4	6.281	7.943	-5.147	# O
378	122	1	5.977	8.822	-4.922	# H
379	122	1	7.236	8.003	-5.111	# H
380	123	4	10.95	11.217	-2.871	# O
381	123	1	10.884	10.296	-3.125	# H
382	123	1	10.321	11.314	-2.156	# H
383	124	4	4.853	11.817	-10.913	# O
384	124	1	5.371	11.014	-10.967	# H
385	124	1	4.402	11.755	-10.071	# H
386	125	4	2.338	8.784	-4.0	# O
387	125	1	1.979	9.449	-3.413	# H
388	125	1	2.043	7.952	-3.629	# H
389	126	4	5.539	9.242	-1.116	# O
390	126	1	5.239	9.388	-2.013	# H
391	126	1	6.31	8.683	-1.209	# H
392	127	4	10.882	14.039	-3.12	# O
393	127	1	10.896	13.107	-3.339	# H
394	127	1	10.174	14.125	-2.481	# H
395	128	4	12.623	12.406	-10.275	# O
396	128	1	12.975	11.808	-10.935	# H
397	128	1	11.739	12.08	-10.104	# H
398	129	4	8.709	13.165	-12.868	# O
399	129	1	9.396	13.712	-12.487	# H
400	129	1	7.923	13.709	-12.833	# H
401	130	4	11.588	13.684	-7.309	# O
402	130	1	12.231	12.983	-7.195	# H
403	130	1	12.113	14.464	-7.489	# H
404	131	4	13.362	14.483	-4.105	# O
405	131	1	13.698	15.07	-3.427	# H
406	131	1	12.442	14.353	-3.875	# H
407	132	4	9.191	14.533	-0.936	# O
408	132	1	8.871	13.813	-0.392	# H
409	132	1	8.517	15.208	-0.863	# H
410	133	4	12.406	4.765	-5.573	# O
411	133	1	12.775	3.945	-5.245	# H
412	133	1	11.546	4.825	-5.157	# H
413	134	4	9.367	7.419	-5.349	# O
414	134	1	9.865	7.894	-4.684	# H
415	134	1	9.509	6.495	-5.142	# H
416	135	4	11.773	2.724	-11.908	# O
417	135	1	11.649	2.743	-12.858	# H
418	135	1	12.721	2.772	-11.789	# H
419	136	4	12.182	13.436	-0.577	# O
420	136	1	11.576	13.459	-1.317	# H
421	136	1	11.878	12.704	-0.04	# H
422	137	4	1.065	9.815	-1.581	# O
423	137	1	1.569	9.236	-1.009	# H
424	137	1	0.326	10.099	-1.043	# H
425	138	4	8.119	11.222	-2.047	# O
426	138	1	7.354	11.791	-2.131	# H
427	138	1	8.301	10.93	-2.94	# H
428	139	4	3.098	7.958	-0.685	# O
429	139	1	3.138	7.66	0.223	# H
430	139	1	3.952	8.359	-0.845	# H
431	140	4	5.038	6.537	-2.718	# O
432	140	1	4.508	6.046	-3.346	# H
433	140	1	5.707	6.966	-3.252	# H
434	141	4	5.526	3.504	-2.638	# O
435	141	1	5.431	2.886	-3.363	# H
436	141	1	4.945	4.23	-2.865	# H
437	142	4	8.292	2.061	-5.606	# O
438	142	1	7.843	2.083	-6.451	# H
439	142	1	7.658	1.663	-5.009	# H
440	143	4	8.698	10.956	-4.984	# O
441	143	1	9.117	11.8	-5.157	# H
442	143	1	7.779	11.094	-5.214	# H
443	144	4	11.034	8.688	-3.601	# O
444	144	1	11.154	8.092	-2.861	# H
445	144	1	11.893	8.725	-4.02	# H
446	145	4	13.373	9.242	-5.024	# O
447	145	1	12.846	9.766	-5.628	# H
448	145	1	13.716	9.874	-4.393	# H
449	146	4	7.801	5.23	-2.343	# O
450	146	1	8.391	4.922	-1.655	# H
451	146	1	6.983	4.758	-2.187	# H
452	147	4	12.62	4.847	-2.11	# O
453	147	1	11.932	4.185	-2.175	# H
454	147	1	13.341	4.4	-1.665	# H
455	148	4	1.129	9.203	-11.209	# O
456	148	1	0.474	8.934	-11.854	# H
457	148	1	1.967	9.094	-11.659	# H
458	149	4	2.166	9.589	-6.669	# O
459	149	1	2.534	9.501	-5.79	# H
460	149	1	1.598	8.825	-6.768	# H
461	150	4	1.718	6.499	-2.763	# O
462	150	1	0.824	6.466	-2.424	# H
463	150	1	2.258	6.698	-1.998	# H
464	151	4	2.222	0.774	-8.415	# O
465	151	1	2.87	0.224	-8.855	# H
466	151	1	2.642	1.029	-7.593	# H
467	152	4	1.975	0.93	-5.672	# O
468	152	1	1.627	1.386	-4.907	# H
469	152	1	1.644	0.036	-5.59	# H
470	153	4	3.582	14.102	-1.507	# O
471	153	1	3.539	13.731	-0.626	# H
472	153	1	3.713	15.04	-1.367	# H
473	154	4	9.488	2.121	-2.151	# O
474	154	1	9.427	2.713	-1.401	# H
475	154	1	10.428	2.014	-2.295	# H
476	155	4	12.125	1.778	-2.511	# O
477	155	1	12.739	2.096	-3.173	# H
478	155	1	12.67	1.293	-1.892	# H
479	156	4	12.866	0.341	-6.184	# O
480	156	1	11.992	0.675	-6.387	# H
481	156	1	12.757	-0.131	-5.359	# H
482	157	4	3.052	14.414	-5.437	# O
483	157	1	2.325	13.794	-5.504	# H
484	157	1	3.113	14.808	-6.307	# H
485	158	4	10.613	1.258	-7.245	# O
486	158	1	9.831	1.733	-6.965	# H
487	158	1	10.32	0.354	-7.354	# H
488	159	4	8.499	3.677	-11.733	# O
489	159	1	7.686	3.303	-12.074	# H
490	159	1	9.003	2.921	-11.431	# H
491	160	4	13.001	0.341	-10.495	# O
492	160	1	13.604	0.913	-10.02	# H
493	160	1	12.261	0.905	-10.718	# H
494	161	4	6.649	1.105	-0.694	# O
495	161	1	6.368	1.609	-1.458	# H
496	161	1	7.031	0.307	-1.059	# H
497	162	4	13.251	0.521	-0.116	# O
498	162	1	13.137	0.84	0.779	# H
499	162	1	14.068	0.922	-0.412	# H
500	163	4	12.157	-10.234	7.797	# O
501	163	1	12.076	-11.149	7.526	# H
502	163	1	11.743	-9.738	7.09	# H
503	164	4	10.289	-8.457	9.677	# O
504	164	1	9.513	-8.936	9.967	# H
505	164	1	10.94	-9.136	9.503	# H
506	165	4	4.305	-8.145	10.555	# O
507	165	1	3.474	-8.4	10.955	# H
508	165	1	4.913	-8.073	11.291	# H
509	166	4	4.285	-4.111	10.751	# O
510	166	1	4.588	-5.001	10.572	# H
511	166	1	5.03	-3.554	10.523	# H
512	167	4	2.714	-13.184	4.339	# O
513	167	1	1.826	-12.843	4.237	# H
514	167	1	2.998	-13.384	3.447	# H
515	168	4	0.678	-10.584	10.223	# O
516	168	1	1.249	-11.352	10.224	# H
517	168	1	0.678	-10.285	9.314	# H
518	169	4	10.536	-1.765	8.078	# O
519	169	1	9.917	-1.309	7.507	# H
520	169	1	11.391	-1.61	7.677	# H
521	170	4	9.729	-5.781	9.684	# O
522	170	1	9.66	-6.722	9.523	# H
523	170	1	10.491	-5.691	10.257	# H
524	171	4	10.76	-12.974	9.911	# O
525	171	1	11.136	-13.847	9.799	# H
526	171	1	10.662	-12.638	9.02	# H
527	172	4	4.89	-14.601	5.373	# O
528	172	1	4.997	-13.701	5.68	# H
529	172	1	3.98	-14.649	5.083	# H
530	173	4	2.539	-12.679	10.618	# O
531	173	1	3.22	-12.415	11.237	# H
532	173	1	2.224	-13.519	10.952	# H
533	174	4	6.731	-11.633	9.706	# O
534	174	1	7.239	-11.134	10.346	# H
535	174	1	7.263	-12.409	9.53	# H
536	175	4	11.402	-6.881	5.471	# O
537	175	1	10.784	-6.416	4.907	# H
538	175	1	11.914	-6.188	5.888	# H
539	176	4	6.265	-7.353	12.149	# O
540	176	1	5.932	-6.726	12.791	# H
541	176	1	6.442	-6.827	11.369	# H
542	177	4	4.696	-15.282	11.979	# O
543	177	1	5.038	-14.438	11.684	# H
544	177	1	3.758	-15.133	12.096	# H
545	178	4	0.77	-6.195	2.845	# O
546	178	1	0.393	-5.706	2.113	# H
547	178	1	1.028	-5.523	3.476	# H
548	179	4	13.931	-2.077	10.594	# O
549	179	1	13.943	-2.481	9.726	# H
550	179	1	13.378	-1.302	10.49	# H
551	180	4	13.329	-7.174	11.922	# O
552	180	1	13.746	-7.388	11.088	# H
553	180	1	14.053	-6.917	12.493	# H
554	181	4	10.767	-9.729	5.039	# O
555	181	1	9.84	-9.795	5.268	# H
556	181	1	10.92	-8.791	4.925	# H
557	182	4	10.754	-13.457	2.036	# O
558	182	1	9.814	-13.296	2.121	# H
559	182	1	11.072	-12.738	1.49	# H
560	183	4	6.373	-9.202	7.821	# O
561	183	1	5.969	-9.914	7.326	# H
562	183	1	6.459	-9.547	8.71	# H
563	184	4	6.841	-5.515	9.985	# O
564	184	1	6.544	-6.121	9.306	# H
565	184	1	7.791	-5.478	9.874	# H
566	185	4	5.086	-12.428	11.601	# O
567	185	1	5.637	-12.318	10.827	# H
568	185	1	5.6	-12.054	12.317	# H
569	186	4	12.973	-8.928	2.55	# O
570	186	1	13.413	-9.766	2.404	# H
571	186	1	13.686	-8.295	2.637	# H
572	187	4	11.083	-3.988	6.518	# O
573	187	1	11.523	-3.246	6.104	# H
574	187	1	11.022	-3.746	7.442	# H
575	188	4	3.073	-10.308	5.322	# O
576	188	1	2.953	-9.581	4.71	# H
577	188	1	2.763	-11.077	4.845	# H
578	189	4	0.712	-7.136	11.129	# O
579	189	1	0.79	-7.001	10.185	# H
580	189	1	1.326	-7.845	11.322	# H
581	190	4	1.957	-5.436	7.54	# O
582	190	1	1.549	-5.295	6.685	# H
583	190	1	2.848	-5.72	7.337	# H
584	191	4	13.75	-1.001	3.875	# O
585	191	1	13.59	-1.291	4.773	# H
586	191	1	13.585	-1.777	3.339	# H
587	192	4	6.229	-1.222	5.652	# O
588	192	1	6.053	-2.138	5.439	# H
589	192	1	5.374	-0.863	5.892	# H
590	193	4	13.018	-1.866	6.509	# O
591	193	1	13.473	-2.647	6.823	# H
592	193	1	13.357	-1.156	7.053	# H
593	194	4	5.331	-11.841	6.433	# O
594	194	1	5.105	-12.057	7.337	# H
595	194	1	4.55	-11.408	6.087	# H
596	195	4	12.561	-11.834	5.032	# O
597	195	1	11.962	-11.111	4.848	# H
598	195	1	13.109	-11.897	4.249	# H
599	196	4	11.167	-13.198	7.062	# O
600	196	1	11.56	-12.881	6.249	# H
601	196	1	11.529	-14.077	7.176	# H
602	197	4	0.391	-12.666	0.495	# O
603	197	1	0.308	-11.723	0.637	# H
604	197	1	0.039	-12.809	-0.383	# H
605	198	4	11.753	-10.608	11.157	# O
606	198	1	11.021	-10.099	11.506	# H
607	198	1	11.355	-11.425	10.856	# H
608	199	4	8.191	-13.932	9.562	# O
609	199	1	8.194	-14.373	8.713	# H
610	199	1	9.086	-13.61	9.669	# H
611	200	4	4.041	-14.049	8.522	# O
612	200	1	3.701	-13.572	9.278	# H
613	200	1	3.279	-14.503	8.162	# H
614	201	4	8.253	-12.931	2.553	# O
615	201	1	8.374	-12.972	3.502	# H
616	201	1	7.867	-12.068	2.398	# H
617	202	4	7.265	-10.621	1.951	# O
618	202	1	6.696	-11.069	1.325	# H
619	202	1	7.974	-10.261	1.418	# H
620	203	4	8.491	-9.872	11.309	# O
621	203	1	8.858	-10.346	12.055	# H
622	203	1	8.302	-8.998	11.65	# H
623	204	4	4.81	-6.625	4.224	# O
624	204	1	4.036	-7.165	4.064	# H
625	204	1	5.539	-7.144	3.886	# H
626	205	4	4.853	-6.957	7.862	# O
627	205	1	5.371	-7.76	7.808	# H
628	205	1	4.402	-7.019	8.704	# H
629	206	4	9.74	-5.69	3.135	# O
630	206	1	10.082	-4.946	2.639	# H
631	206	1	8.912	-5.377	3.497	# H
632	207	4	12.623	-6.369	8.499	# O
633	207	1	12.975	-6.966	7.839	# H
634	207	1	11.739	-6.694	8.67	# H
635	208	4	8.709	-5.609	5.906	# O
636	208	1	9.396	-5.062	6.287	# H
637	208	1	7.923	-5.065	5.941	# H
638	209	4	0.849	-9.992	1.398	# O
639	209	1	1.718	-9.709	1.681	# H
640	209	1	0.358	-9.178	1.283	# H
641	210	4	8.012	-8.604	5.519	# O
642	210	1	8.468	-7.794	5.745	# H
643	210	1	7.661	-8.922	6.351	# H
644	211	4	11.588	-5.09	11.466	# O
645	211	1	12.231	-5.791	11.579	# H
646	211	1	12.113	-4.311	11.285	# H
647	212	4	7.233	-3.396	2.781	# O
648	212	1	7.224	-2.663	2.166	# H
649	212	1	6.312	-3.643	2.874	# H
650	213	4	2.833	-8.174	3.526	# O
651	213	1	2.226	-7.434	3.536	# H
652	213	1	3.308	-8.084	2.7	# H
653	214	4	10.218	-3.333	1.444	# O
654	214	1	10.32	-3.537	0.514	# H
655	214	1	9.319	-3.587	1.649	# H
656	215	4	7.741	-12.775	5.426	# O
657	215	1	7.033	-12.306	5.868	# H
658	215	1	8.026	-13.433	6.061	# H
659	216	4	8.86	-0.814	6.139	# O
660	216	1	9.114	-0.852	5.217	# H
661	216	1	7.912	-0.941	6.132	# H
662	217	4	5.945	-14.466	2.801	# O
663	217	1	6.794	-14.029	2.735	# H
664	217	1	5.578	-14.154	3.629	# H
665	218	4	4.844	-8.213	1.275	# O
666	218	1	5.61	-8.325	1.837	# H
667	218	1	4.921	-8.909	0.623	# H
668	219	4	3.538	-10.781	1.958	# O
669	219	1	3.619	-11.728	2.07	# H
670	219	1	4.43	-10.45	2.064	# H
671	220	4	4.34	-0.631	9.062	# O
672	220	1	5.076	-1.18	9.333	# H
673	220	1	4.724	0.234	8.922	# H
674	221	4	1.224	-4.564	4.936	# O
675	221	1	0.298	-4.322	4.926	# H
676	221	1	1.69	-3.736	4.814	# H
677	222	4	7.45	-1.458	0.884	# O
678	222	1	8.243	-1.169	0.432	# H
679	222	1	6.931	-1.889	0.205	# H
680	223	4	7.968	-6.238	0.748	# O
681	223	1	7.863	-6.853	1.475	# H
682	223	1	7.8	-6.761	-0.035	# H
683	224	4	11.208	-7.176	1.353	# O
684	224	1	10.659	-6.729	1.997	# H
685	224	1	11.83	-7.681	1.876	# H
686	225	4	6.876	-8.217	3.249	# O
687	225	1	7.297	-8.383	4.092	# H
688	225	1	7.001	-9.027	2.755	# H
689	226	4	9.388	-9.193	0.497	# O
690	226	1	9.909	-9.908	0.131	# H
691	226	1	10.035	-8.554	0.797	# H
692	227	4	5.772	-12.143	0.195	# O
693	227	1	5.57	-13.007	0.556	# H
694	227	1	5.601	-12.23	-0.743	# H
695	228	4	9.953	-1.112	2.787	# O
696	228	1	10.848	-0.773	2.809	# H
697	228	1	9.985	-1.834	2.16	# H
698	229	4	3.593	-5.739	1.016	# O
699	229	1	4.03	-5.196	1.672	# H
700	229	1	4.078	-6.564	1.025	# H
701	230	4	0.807	-2.95	8.468	# O
702	230	1	1.138	-3.818	8.236	# H
703	230	1	1.236	-2.744	9.298	# H
704	231	4	5.404	-4.619	6.128	# O
705	231	1	5.103	-4.743	7.028	# H
706	231	1	5.297	-5.478	5.72	# H
707	232	4	1.296	-2.083	11.206	# O
708	232	1	0.86	-1.903	12.038	# H
709	232	1	1.864	-1.326	11.064	# H
710	233	4	1.129	-9.571	7.565	# O
711	233	1	0.474	-9.84	6.921	# H
712	233	1	1.967	-9.681	7.115	# H
713	234	4	2.166	-9.186	12.105	# O
714	234	1	2.534	-9.273	12.985	# H
715	234	1	1.598	-9.949	12.006	# H
716	235	4	0.343	-12.361	3.507	# O
717	235	1	-0.561	-12.098	3.333	# H
718	235	1	0.827	-12.09	2.727	# H
719	236	4	2.885	-13.305	1.417	# O
720	236	1	3.595	-13.726	0.932	# H
721	236	1	2.169	-13.237	0.785	# H
722	237	4	7.282	-3.117	12.868	# O
723	237	1	7.041	-2.849	11.981	# H
724	237	1	8.223	-2.946	12.923	# H
725	238	4	6.656	-2.146	10.123	# O
726	238	1	7.173	-2.757	9.598	# H
727	238	1	7.306	-1.643	10.614	# H
728	239	4	9.396	-1.255	10.95	# O
729	239	1	9.684	-1.51	10.073	# H
730	239	1	9.908	-1.807	11.54	# H
731	240	4	1.335	-1.043	6.547	# O
732	240	1	1.167	-1.676	7.246	# H
733	240	1	0.468	-0.837	6.197	# H
734	241	4	2.941	-2.35	3.992	# O
735	241	1	2.416	-1.969	3.289	# H
736	241	1	2.865	-1.725	4.713	# H
737	242	4	5.54	-0.401	2.867	# O
738	242	1	6.272	-0.686	2.32	# H
739	242	1	5.8	-0.64	3.757	# H
740	243	4	4.702	-4.285	2.872	# O
741	243	1	4.073	-3.816	3.421	# H
742	243	1	4.817	-5.13	3.307	# H
743	244	4	12.157	-10.234	-10.978	# O
744	244	1	12.076	-11.149	-11.249	# H
745	244	1	11.743	-9.738	-11.684	# H
746	245	4	10.289	-8.457	-9.097	# O
747	245	1	9.513	-8.936	-8.807	# H
748	245	1	10.94	-9.136	-9.271	# H
749	246	4	4.305	-8.145	-8.219	# O
750	246	1	3.474	-8.4	-7.82	# H
751	246	1	4.913	-8.073	-7.484	# H
752	247	4	4.285	-4.111	-8.024	# O
753	247	1	4.588	-5.001	-8.203	# H
754	247	1	5.03	-3.554	-8.251	# H
755	248	4	0.678	-10.584	-8.551	# O
756	248	1	1.249	-11.352	-8.551	# H
757	248	1	0.678	-10.285	-9.46	# H
758	249	4	10.536	-1.765	-10.697	# O
759	249	1	9.917	-1.309	-11.267	# H
760	249	1	11.391	-1.61	-11.098	# H
761	250	4	9.729	-5.781	-9.09	# O
762	250	1	9.66	-6.722	-9.251	# H
763	250	1	10.491	-5.691	-8.518	# H
764	251	4	10.76	-12.974	-8.863	# O
765	251	1	11.136	-13.847	-8.976	# H
766	251	1	10.662	-12.638	-9.754	# H
767	252	4	2.539	-12.679	-8.156	# O
768	252	1	3.22	-12.415	-7.537	# H
769	252	1	2.224	-13.519	-7.822	# H
770	253	4	6.731	-11.633	-9.069	# O
771	253	1	7.239	-11.134	-8.428	# H
772	253	1	7.263	-12.409	-9.245	# H
773	254	4	6.265	-7.353	-6.625	# O
774	254	1	5.932	-6.726	-5.983	# H
775	254	1	6.442	-6.827	-7.405	# H
776	255	4	4.696	-15.282	-6.795	# O
777	255	1	5.038	-14.438	-7.09	# H
778	255	1	3.758	-15.133	-6.679	# H
779	256	4	5.477	-5.385	-4.81	# O
780	256	1	6.094	-4.71	-5.092	# H
781	256	1	4.616	-4.976	-4.901	# H
782	257	4	13.931	-2.077	-8.18	# O
783	257	1	13.943	-2.481	-9.048	# H
784	257	1	13.378	-1.302	-8.284	# H
785	258	4	13.329	-7.174	-6.852	# O
786	258	1	13.746	-7.388	-7.687	# H
787	258	1	14.053	-6.917	-6.281	# H
788	259	4	6.373	-9.202	-10.953	# O
789	259	1	5.969	-9.914	-11.448	# H
790	259	1	6.459	-9.547	-10.064	# H
791	260	4	6.841	-5.515	-8.789	# O
792	260	1	6.544	-6.121	-9.468	# H
793	260	1	7.791	-5.478	-8.9	# H
794	261	4	5.086	-12.428	-7.173	# O
795	261	1	5.637	-12.318	-7.948	# H
796	261	1	5.6	-12.054	-6.457	# H
797	262	4	5.933	-5.777	-2.138	# O
798	262	1	5.036	-5.553	-1.891	# H
799	262	1	5.958	-5.654	-3.087	# H
800	263	4	4.76	-8.906	-3.562	# O
801	263	1	4.621	-8.034	-3.194	# H
802	263	1	3.878	-9.249	-3.708	# H
803	264	4	11.083	-3.988	-12.256	# O
804	264	1	11.523	-3.246	-12.67	# H
805	264	1	11.022	-3.746	-11.332	# H
806	265	4	6.558	-2.964	-1.354	# O
807	265	1	6.53	-2.559	-2.221	# H
808	265	1	6.395	-3.893	-1.517	# H
809	266	4	0.712	-7.136	-7.645	# O
810	266	1	0.79	-7.001	-8.59	# H
811	266	1	1.326	-7.845	-7.453	# H
812	267	4	1.957	-5.436	-11.235	# O
813	267	1	1.549	-5.295	-12.089	# H
814	267	1	2.848	-5.72	-11.438	# H
815	268	4	11.775	-1.287	-4.328	# O
816	268	1	12.289	-1.376	-3.526	# H
817	268	1	10.931	-0.941	-4.035	# H
818	269	4	13.018	-1.866	-12.265	# O
819	269	1	13.473	-2.647	-11.951	# H
820	269	1	13.357	-1.156	-11.721	# H
821	270	4	0.768	-6.095	-5.106	# O
822	270	1	0.931	-6.564	-5.924	# H
823	270	1	1.233	-6.602	-4.441	# H
824	271	4	9.827	-14.097	-4.466	# O
825	271	1	9.365	-13.889	-3.654	# H
826	271	1	9.424	-14.911	-4.769	# H
827	272	4	11.922	-11.376	-1.237	# O
828	272	1	12.247	-12.21	-1.577	# H
829	272	1	12.71	-10.853	-1.089	# H
830	273	4	5.331	-11.841	-12.342	# O
831	273	1	5.105	-12.057	-11.437	# H
832	273	1	4.55	-11.408	-12.687	# H
833	274	4	7.771	-10.942	-1.676	# O
834	274	1	7.675	-11.883	-1.826	# H
835	274	1	8.614	-10.721	-2.071	# H
836	275	4	11.167	-13.198	-11.712	# O
837	275	1	11.56	-12.881	-12.525	# H
838	275	1	11.529	-14.077	-11.598	# H
839	276	4	2.902	-14.531	-3.522	# O
840	276	1	2.508	-13.683	-3.315	# H
841	276	1	2.214	-15.168	-3.331	# H
842	277	4	9.477	-14.447	-0.453	# O
843	277	1	8.786	-14.64	0.182	# H
844	277	1	10.22	-14.164	0.08	# H
845	278	4	11.753	-10.608	-7.617	# O
846	278	1	11.021	-10.099	-7.268	# H
847	278	1	11.355	-11.425	-7.918	# H
848	279	4	8.191	-13.932	-9.212	# O
849	279	1	8.194	-14.373	-10.062	# H
850	279	1	9.086	-13.61	-9.105	# H
851	280	4	4.041	-14.049	-10.253	# O
852	280	1	3.701	-13.572	-9.496	# H
853	280	1	3.279	-14.503	-10.613	# H
854	281	4	2.342	-6.72	-2.946	# O
855	281	1	1.957	-7.36	-2.348	# H
856	281	1	2.653	-6.016	-2.377	# H
857	282	4	8.491	-9.872	-7.465	# O
858	282	1	8.858	-10.346	-6.719	# H
859	282	1	8.302	-8.998	-7.125	# H
860	283	4	6.281	-10.831	-5.147	# O
861	283	1	5.977	-9.952	-4.922	# H
862	283	1	7.236	-10.771	-5.111	# H
863	284	4	10.95	-7.558	-2.871	# O
864	284	1	10.884	-8.478	-3.125	# H
865	284	1	10.321	-7.46	-2.156	# H
866	285	4	4.853	-6.957	-10.913	# O
867	285	1	5.371	-7.76	-10.967	# H
868	285	1	4.402	-7.019	-10.071	# H
869	286	4	2.338	-9.991	-4.0	# O
870	286	1	1.979	-9.325	-3.413	# H
871	286	1	2.043	-10.822	-3.629	# H
872	287	4	5.539	-9.532	-1.116	# O
873	287	1	5.239	-9.387	-2.013	# H
874	287	1	6.31	-10.092	-1.209	# H
875	288	4	10.882	-4.735	-3.12	# O
876	288	1	10.896	-5.667	-3.339	# H
877	288	1	10.174	-4.649	-2.481	# H
878	289	4	12.623	-6.369	-10.275	# O
879	289	1	12.975	-6.966	-10.935	# H
880	289	1	11.739	-6.694	-10.104	# H
881	290	4	8.709	-5.609	-12.868	# O
882	290	1	9.396	-5.062	-12.487	# H
883	290	1	7.923	-5.065	-12.833	# H
884	291	4	10.315	-3.094	-6.026	# O
885	291	1	10.96	-2.888	-5.349	# H
886	291	1	10.678	-3.855	-6.479	# H
887	292	4	11.588	-5.09	-7.309	# O
888	292	1	12.231	-5.791	-7.195	# H
889	292	1	12.113	-4.311	-7.489	# H
890	293	4	13.362	-4.291	-4.105	# O
891	293	1	13.698	-3.704	-3.427	# H
892	293	1	12.442	-4.422	-3.875	# H
893	294	4	9.191	-4.242	-0.936	# O
894	294	1	8.871	-4.961	-0.392	# H
895	294	1	8.517	-3.566	-0.863	# H
896	295	4	12.406	-14.009	-5.573	# O
897	295	1	12.775	-14.83	-5.245	# H
898	295	1	11.546	-13.949	-5.157	# H
899	296	4	9.367	-11.355	-5.349	# O