LAMMPS data file via write_data, version 28 Mar 2023, timestep = 100000, units = real

22 atoms
7 atom types
12 bonds
3 bond types

-13.39341583504624 13.39341583504624 xlo xhi
-14.545381761714538 14.545381761714538 ylo yhi
-12.487447073325042 12.487447073325042 zlo zhi
0 0 0 xy xz yz

Masses

1 1.008
2 12.0107
3 14.0067
4 15.999
5 32.06
6 18.998403163
7 35.45

Bond Coeffs # zero

1 0.96
2 1.09
3 1.01

Atoms # bond/kk

1 1 1 0.2670851663540095 -4.965771396199539 -0.2780572062789581 0 0 0
2 1 2 -0.31925357100092633 -4.161061059455534 0.1338855902424412 0 0 0
3 1 1 -0.7762403860216196 -4.54025058466779 1.05733644594791 0 0 0
4 1 1 -0.9713338893381298 -3.7237768200928656 -0.6304630486407519 0 0 0
5 1 2 0.6328062240355159 -2.9678149314101283 0.39745185174281467 0 0 0
6 1 4 1.7408250089321893 -3.215771564834407 0.8741102770425272 0 0 0
7 2 3 0.11488238753174507 -1.7183293400836703 0.2594676101218799 0 0 0
8 2 1 -0.8456573708926616 -1.7026025285176658 -0.20575627633280627 0 0 0
9 2 2 1.0401113269625437 -0.6049952582183398 0.15464245988362701 0 0 0
10 2 1 1.823514533316132 -0.7059031059143006 0.9196123329520044 0 0 0
11 2 2 1.8017953742974164 -0.4248059009844116 -1.1603224355985695 0 0 0
12 2 1 1.1206481702882058 -0.2762765608685971 -2.0276227982764996 0 0 0
13 2 1 2.5550941421194455 0.3798478523085169 -0.9905478335563159 0 0 0
14 2 1 2.2872763838818333 -1.3528880172719475 -1.4559809876926313 0 0 0
15 2 2 0.34271309591008325 0.7494165019183487 0.5642830348386794 0 0 0
16 2 4 -0.8494089445978616 1.0153030916765484 0.4504107236485093 0 0 0
17 3 3 1.197632648194043 1.6800444772253798 0.9841589013865932 0 0 0
18 3 1 2.1251030143635674 1.5148782508535028 1.375603863292707 0 0 0
19 3 2 0.9556081682658082 3.0616661160341785 0.7778241018751723 0 0 0
20 3 1 -0.020382710519639247 3.23542091809783 1.2483136917928441 0 0 0
21 3 1 1.7291961352149396 3.601827354785513 1.3116930800129363 0 0 0
22 3 1 0.8743296033712973 3.3802045499198563 -0.2582501033767095 0 0 0

Velocities

1 -0.0012860812945652007 -0.00600249139913822 -0.015743618847140897
2 -0.0018688494316681848 0.001104849579006093 0.006573276196979645
3 0.02729793766390443 0.008147593273607565 0.0064518312679588165
4 0.005238325194930868 -0.005494251537465267 -0.007856230726174416
5 0.004906625623888997 -0.013042703578595445 8.568598157473476e-05
6 -0.0017524728301377584 -0.0010912611798422065 0.00032829019632730436
7 -0.0018307856396368347 3.3017487777524e-05 0.003695299619028765
8 -0.0029787917222378747 0.016362303981766028 -0.003784666908721758
9 -0.003122635604879596 -0.0021848052280197764 -0.005777286158895018
10 -0.002422857343021559 0.004861264580513133 0.007040106979075448
11 -0.002012409925524625 0.0014737573258185132 0.0028520952376442604
12 -0.030485194333858785 -0.006840387433370324 0.0036637445582145193
13 -0.03155208797211189 -0.00958833778380137 -0.011338598944360727
14 0.007181322490320337 -0.008486661571851569 0.003346363469014451
15 -0.00028481823726668367 -0.007399960480696004 0.0006818511284269617
16 -0.0012237873336948333 0.0008825021501397479 0.003250107290472796
17 0.000526932581061938 0.0009699647066268847 -0.00015378132370187975
18 -0.010630615656768096 0.021249660708980725 0.0044558528676974934
19 -0.0019262465230342142 0.00215674979448514 -0.0023476101010798446
20 0.0015624923422232193 0.01149890111197641 0.02099053890905847
21 0.011195373912875948 -0.013644920696498586 0.0066748537922886025
22 0.01991955419717443 0.012371065593687633 -0.018275374389850822

Bonds

1 2 1 2
2 2 2 3
3 2 2 4
4 3 7 8
5 2 9 10
6 2 11 12
7 2 11 13
8 2 11 14
9 3 17 18
10 2 19 20
11 2 19 21
12 2 19 22


