LAMMPS data file via write_data, version 28 Mar 2023, timestep = 100000, units = real

22 atoms
7 atom types

-13.136942965739618 13.136942965739618 xlo xhi
-14.266849694799824 14.266849694799824 ylo yhi
-12.248322758761905 12.248322758761905 zlo zhi
0 0 0 xy xz yz

Masses

1 1.008
2 12.0107
3 14.0067
4 15.999
5 32.06
6 18.998403163
7 35.45

Atoms # atomic/kk

1 1 -1.0379988786834176 -3.388242529113697 -0.14381429340550253 0 0 0
2 2 -0.17507287591131693 -3.797008132283487 0.3897355607890149 0 0 0
3 1 0.25905224478330346 -4.572225148492615 -0.323404995848047 0 0 0
4 1 -0.5055108015727363 -4.320652180240971 1.265365056729099 0 0 0
5 2 0.7843177940344113 -2.711885583528492 0.8169860003911287 0 0 0
6 4 0.8701656171907803 -2.3653651009512284 2.006394675214984 0 0 0
7 3 1.528645939723475 -2.2187131105526845 -0.17050795735260568 0 0 0
8 1 1.3994716665391937 -2.5469851965303256 -1.1098624547565903 0 0 0
9 2 2.2684712144286667 -1.0078494593427205 -0.0353721568381478 0 0 0
10 1 2.408509949737544 -0.8488580540313837 1.0646573759092097 0 0 0
11 2 3.629315467861101 -1.187923140764406 -0.7269157537369864 0 0 0
12 1 3.3870920613723143 -1.3522717074887822 -1.7339774414428362 0 0 0
13 1 4.1949067870493515 -0.2857484676649502 -0.669763348177882 0 0 0
14 1 4.142590435706463 -2.0626060002644167 -0.38614267726150087 0 0 0
15 2 1.6585223695102655 0.25690188771287303 -0.7247582354504527 0 0 0
16 4 0.7679884021775418 0.14887290021148125 -1.5989390758924509 0 0 0
17 3 2.2671934589227494 1.381415048004195 -0.3833813290439398 0 0 0
18 1 2.782899824341035 1.3721030367578386 0.520383560020676 0 0 0
19 2 2.0289294353741543 2.607014059286776 -1.1230949055433963 0 0 0
20 1 1.465591698078093 3.2995443079426288 -0.47621527705469124 0 0 0
21 1 2.9891310190475444 3.1667016770221394 -1.3810415909267213 0 0 0
22 1 1.4574809492265839 2.5174305079294257 -2.087825708698637 0 0 0

Velocities

1 0.005380891576398214 0.002827427626888627 -0.025698157832406525
2 -0.004649613539056322 0.0002965684530030802 -0.001198806971025642
3 -0.008133099198098957 0.0167632863508324 -0.001980096213457265
4 -0.0028660226945074964 0.003256165861626805 0.0013426970533068638
5 -0.00739985342866195 0.006272801893335192 0.0013938221054509866
6 0.004075651822904362 0.0039079024656688615 0.0008400866602648917
7 -0.004681770278307124 -0.003133639216037395 0.002783141852432821
8 0.00581099167875289 0.010814550020297646 0.01149661378252967
9 0.004460338647340228 0.001906441252261988 0.00025271540319524296
10 -0.00731235831951702 -0.0010648303657016613 -0.013067028994028
11 -0.001328716568143891 0.001879167215012988 0.0036042541109370043
12 -0.0073761294447519795 0.0023038741876731062 0.01734768152497614
13 -0.00454110571123187 -0.02134061648120147 0.01244366968270534
14 0.03227764120433623 0.015624178120691315 -0.012488311731263897
15 -0.0009712632184629343 0.0059185629544397 0.005272009944452639
16 -0.0016905398551208433 0.0010001971024384433 0.002832578065641929
17 0.003995591615899969 0.004828785093496367 -0.0004466694392269925
18 0.01468933254306041 -0.006891857116893494 -0.03219142393713421
19 -0.0020170800873900645 0.0038642050958355278 -0.007780009072476645
20 0.019088940289944612 -0.0015354683550601093 -0.006584846372863376
21 -0.028566921553282835 -0.008445943720819062 0.0044708208769310975
22 0.010124134676549984 0.01044701297669285 -0.01634884955167836

