LAMMPS (3 Aug 2022)
OMP_NUM_THREADS environment is not set. Defaulting to 1 thread. (src/comm.cpp:98)
  using 1 OpenMP thread(s) per MPI task
Loaded 1 plugins from /blue/roitberg/apps/lammps-ani/build/
# variables
variable       lammps_ani_root getenv LAMMPS_ANI_ROOT
# kokkos needs newton_pair on for reverse communication between gpus
variable       newton_pair     index  off
variable       num_models      index  1
variable       datafile        index  20k/water.data

# Intialization
units          real
atom_style     atomic

neighbor       2.0 bin
# check yes = only build if at least one atom has moved half the skin distance or more
neigh_modify   every 10 delay 0 check yes
newton         ${newton_pair} off
newton         off off

# Atom Definition
read_data      ${datafile}
read_data      20k/water.data
Reading data file ...
  triclinic box = (-30 -30 -30) to (30 30 30) with tilt (0 0 0)
  2 by 2 by 2 MPI processor grid
  reading atoms ...
  21384 atoms
  read_data CPU = 0.108 seconds
# replicate      3 3 3
change_box     all boundary p p p
Changing box ...

# pair_style ani 5.1 model_file device num_models ani_aev ani_neighbor
# 0. model_file               = path to the model file
# 1. device                   = cuda/cpu
# 2. num_models (Optional)    = number of models to use, default as -1 to use all models
# 3. ani_aev (Optional)       = cuaev/pyaev, default as cuaev
# 4. ani_neighbor (Optional)  = full/half, default as full nbrlist
# 5. ani_precision (Optional) = single/double, default as single
pair_style     ani 5.1 ${lammps_ani_root}/tests/ani2x.pt cuda ${num_models} cuaev full single
pair_style     ani 5.1 /blue/roitberg/apps/lammps-ani/tests/ani2x.pt cuda ${num_models} cuaev full single
pair_style     ani 5.1 /blue/roitberg/apps/lammps-ani/tests/ani2x.pt cuda 8 cuaev full single
pair_coeff     * *

# Settings: temperature at 300 K, timestep (0.5 fs)
velocity       all create 300.0 12345 rot yes mom yes dist gaussian
fix            1 all langevin 300.0 300.0 100.0 12345
fix            2 all nve
timestep       0.5

# Output: dump atom positions every 0.5 ps and log info every 0.5 ps
dump           1 all xyz 100 water.xyz
dump_modify    1 element H C N O F S Cl
thermo_style   custom step pe ke etotal temp press vol
thermo         100

# Run the simulation: first run (5 ps)
run            1000
Generated 0 of 21 mixed pair_coeff terms from geometric mixing rule
Neighbor list info ...
  update: every = 10 steps, delay = 0 steps, check = yes
  max neighbors/atom: 2000, page size: 100000
  master list distance cutoff = 7.1
  ghost atom cutoff = 7.1
  binsize = 3.55, bins = 17 17 17
  1 neighbor lists, perpetual/occasional/extra = 1 0 0
  (1) pair ani, perpetual
      attributes: full, newton off
      pair build: full/bin/atomonly
      stencil: full/bin/3d
      bin: standard
Per MPI rank memory allocation (min/avg/max) = 6.04 | 6.04 | 6.041 Mbytes
   Step         PotEng         KinEng         TotEng          Temp          Press          Volume    
         0  -3.4177647e+08  19121.598     -3.4175735e+08  300            4046.7213      216000       
       100  -3.4177881e+08  20342.298     -3.4175847e+08  319.15163      4305.059       216000       
       200  -3.4178082e+08  20741.408     -3.4176008e+08  325.4133       4389.5231      216000       
       300  -3.4178242e+08  20613.423     -3.4176181e+08  323.40534      4362.4375      216000       
       400  -3.4178357e+08  20479.556     -3.4176309e+08  321.30509      4334.1071      216000       
       500  -3.4178439e+08  20187.746     -3.417642e+08   316.72685      4272.351       216000       
       600  -3.4178541e+08  20108.761     -3.417653e+08   315.48765      4255.6353      216000       
       700  -3.4178617e+08  19942.012     -3.4176623e+08  312.87152      4220.3461      216000       
       800  -3.417868e+08   19773.595     -3.4176703e+08  310.22922      4184.704       216000       
       900  -3.4178753e+08  19759.063     -3.4176777e+08  310.00122      4181.6285      216000       
      1000  -3.4178788e+08  19685.503     -3.4176819e+08  308.84714      4166.061       216000       
Loop time of 5.32934 on 8 procs for 1000 steps with 21384 atoms

Performance: 8.106 ns/day, 2.961 hours/ns, 187.640 timesteps/s
86.3% CPU use with 8 MPI tasks x 1 OpenMP threads

MPI task timing breakdown:
Section |  min time  |  avg time  |  max time  |%varavg| %total
---------------------------------------------------------------
Pair    | 4.3053     | 4.3132     | 4.3168     |   0.2 | 80.93
Neigh   | 0.49994    | 0.50329    | 0.50474    |   0.2 |  9.44
Comm    | 0.13908    | 0.14329    | 0.14734    |   0.8 |  2.69
Output  | 0.035045   | 0.035132   | 0.035244   |   0.0 |  0.66
Modify  | 0.32249    | 0.32549    | 0.32781    |   0.3 |  6.11
Other   |            | 0.008885   |            |       |  0.17

Nlocal:           2673 ave        2694 max        2643 min
Histogram: 1 0 0 1 1 1 0 2 0 2
Nghost:        5885.25 ave        5921 max        5865 min
Histogram: 2 0 2 1 1 0 1 0 0 1
Neighs:              0 ave           0 max           0 min
Histogram: 8 0 0 0 0 0 0 0 0 0
FullNghs:       394237 ave      400722 max      387976 min
Histogram: 1 0 1 1 1 2 1 0 0 1

Total # of neighbors = 3153896
Ave neighs/atom = 147.48859
Neighbor list builds = 23
Dangerous builds = 0

# write final state of simulation
# write_data    water.final
Total wall time: 0:00:09
