LAMMPS (3 Aug 2022)
KOKKOS mode is enabled (src/KOKKOS/kokkos.cpp:106)
  will use up to 1 GPU(s) per node
  using 1 OpenMP thread(s) per MPI task
Loaded 1 plugins from /blue/roitberg/apps/lammps-ani/build/
package kokkos
package kokkos gpu/aware on
# variables
variable       lammps_ani_root getenv LAMMPS_ANI_ROOT
# kokkos needs newton_pair on for reverse communication between gpus
variable       newton_pair     index  off
variable       num_models      index  1
variable       datafile        index  20k/water.data

# Intialization
units          real
atom_style     atomic

neighbor       2.0 bin
# check yes = only build if at least one atom has moved half the skin distance or more
neigh_modify   every 10 delay 0 check yes
newton         ${newton_pair} off
newton         on off

# Atom Definition
read_data      ${datafile}
read_data      20k/water.data
Reading data file ...
  triclinic box = (-30 -30 -30) to (30 30 30) with tilt (0 0 0)
  1 by 1 by 1 MPI processor grid
  reading atoms ...
  21384 atoms
  read_data CPU = 0.145 seconds
# replicate      3 3 3
change_box     all boundary p p p
Changing box ...

# pair_style ani 5.1 model_file device num_models ani_aev ani_neighbor
# 0. model_file               = path to the model file
# 1. device                   = cuda/cpu
# 2. num_models (Optional)    = number of models to use, default as -1 to use all models
# 3. ani_aev (Optional)       = cuaev/pyaev, default as cuaev
# 4. ani_neighbor (Optional)  = full/half, default as full nbrlist
# 5. ani_precision (Optional) = single/double, default as single
pair_style     ani 5.1 ${lammps_ani_root}/tests/ani2x.pt cuda ${num_models} cuaev full single
pair_style     ani 5.1 /blue/roitberg/apps/lammps-ani/tests/ani2x.pt cuda ${num_models} cuaev full single
pair_style     ani 5.1 /blue/roitberg/apps/lammps-ani/tests/ani2x.pt cuda 1 cuaev full single
pair_coeff     * *

# Settings: temperature at 300 K, timestep (0.5 fs)
velocity       all create 300.0 12345 rot yes mom yes dist gaussian
fix            1 all langevin 300.0 300.0 100.0 12345
fix            2 all nve
timestep       0.5

# Output: dump atom positions every 0.5 ps and log info every 0.5 ps
dump           1 all xyz 100 water.xyz
dump_modify    1 element H C N O F S Cl
thermo_style   custom step pe ke etotal temp press vol
thermo         100

# Run the simulation: first run (5 ps)
run            1000
Generated 0 of 21 mixed pair_coeff terms from geometric mixing rule
Neighbor list info ...
  update: every = 10 steps, delay = 0 steps, check = yes
  max neighbors/atom: 2000, page size: 100000
  master list distance cutoff = 7.1
  ghost atom cutoff = 7.1
  binsize = 7.1, bins = 9 9 9
  1 neighbor lists, perpetual/occasional/extra = 1 0 0
  (1) pair ani/kk, perpetual
      attributes: full, newton on, kokkos_device
      pair build: full/bin/kk/device
      stencil: full/bin/3d
      bin: kk/device
Per MPI rank memory allocation (min/avg/max) = 10.07 | 10.07 | 10.07 Mbytes
   Step         PotEng         KinEng         TotEng          Temp          Press          Volume    
         0  -3.4177677e+08  19121.598     -3.4175765e+08  300            4046.7213      216000       
       100  -3.4177914e+08  20336.024     -3.417588e+08   319.0532       4303.7313      216000       
       200  -3.4178118e+08  20731.179     -3.4176045e+08  325.25281      4387.3582      216000       
       300  -3.4178298e+08  20830.804     -3.4176215e+08  326.81583      4408.442       216000       
       400  -3.41784e+08    20432.072     -3.4176357e+08  320.56011      4324.058       216000       
       500  -3.4178499e+08  20176.527     -3.4176482e+08  316.55084      4269.9768      216000       
       600  -3.4178618e+08  20184.717     -3.4176599e+08  316.67934      4271.7101      216000       
       700  -3.4178698e+08  20049.581     -3.4176693e+08  314.55918      4243.1111      216000       
       800  -3.4178758e+08  19764.531     -3.4176782e+08  310.08701      4182.7857      216000       
       900  -3.4178813e+08  19635.588     -3.4176849e+08  308.06401      4155.4973      216000       
      1000  -3.417888e+08   19682.567     -3.4176912e+08  308.80107      4165.4396      216000       
Loop time of 7.24015 on 1 procs for 1000 steps with 21384 atoms

Performance: 5.967 ns/day, 4.022 hours/ns, 138.119 timesteps/s
76.2% CPU use with 1 MPI tasks x 1 OpenMP threads

MPI task timing breakdown:
Section |  min time  |  avg time  |  max time  |%varavg| %total
---------------------------------------------------------------
Pair    | 6.8273     | 6.8273     | 6.8273     |   0.0 | 94.30
Neigh   | 0.014141   | 0.014141   | 0.014141   |   0.0 |  0.20
Comm    | 0.12014    | 0.12014    | 0.12014    |   0.0 |  1.66
Output  | 0.18223    | 0.18223    | 0.18223    |   0.0 |  2.52
Modify  | 0.0732     | 0.0732     | 0.0732     |   0.0 |  1.01
Other   |            | 0.02313    |            |       |  0.32

Nlocal:          21384 ave       21384 max       21384 min
Histogram: 1 0 0 0 0 0 0 0 0 0
Nghost:          18980 ave       18980 max       18980 min
Histogram: 1 0 0 0 0 0 0 0 0 0
Neighs:              0 ave           0 max           0 min
Histogram: 1 0 0 0 0 0 0 0 0 0
FullNghs:  3.15486e+06 ave 3.15486e+06 max 3.15486e+06 min
Histogram: 1 0 0 0 0 0 0 0 0 0

Total # of neighbors = 3154860
Ave neighs/atom = 147.53367
Neighbor list builds = 24
Dangerous builds = 0

# write final state of simulation
# write_data    water.final
Total wall time: 0:00:10
