LAMMPS (3 Aug 2022)
KOKKOS mode is enabled (src/KOKKOS/kokkos.cpp:106)
  will use up to 1 GPU(s) per node
  using 1 OpenMP thread(s) per MPI task
Loaded 1 plugins from /blue/roitberg/apps/lammps-ani/build/
package kokkos
package kokkos gpu/aware on
# variables
variable       lammps_ani_root getenv LAMMPS_ANI_ROOT
# kokkos needs newton_pair on for reverse communication between gpus
variable       newton_pair     index  off
variable       num_models      index  1
variable       datafile        index  20k/water.data

# Intialization
units          real
atom_style     atomic

neighbor       2.0 bin
# check yes = only build if at least one atom has moved half the skin distance or more
neigh_modify   every 10 delay 0 check yes
newton         ${newton_pair} off
newton         on off

# Atom Definition
read_data      ${datafile}
read_data      20k/water.data
Reading data file ...
  triclinic box = (-30 -30 -30) to (30 30 30) with tilt (0 0 0)
  1 by 1 by 1 MPI processor grid
  reading atoms ...
  21384 atoms
  read_data CPU = 0.138 seconds
# replicate      3 3 3
change_box     all boundary p p p
Changing box ...

# pair_style ani 5.1 model_file device num_models ani_aev ani_neighbor
# 0. model_file               = path to the model file
# 1. device                   = cuda/cpu
# 2. num_models (Optional)    = number of models to use, default as -1 to use all models
# 3. ani_aev (Optional)       = cuaev/pyaev, default as cuaev
# 4. ani_neighbor (Optional)  = full/half, default as full nbrlist
# 5. ani_precision (Optional) = single/double, default as single
pair_style     ani 5.1 ${lammps_ani_root}/tests/ani2x.pt cuda ${num_models} cuaev full single
pair_style     ani 5.1 /blue/roitberg/apps/lammps-ani/tests/ani2x.pt cuda ${num_models} cuaev full single
pair_style     ani 5.1 /blue/roitberg/apps/lammps-ani/tests/ani2x.pt cuda 8 cuaev full single
pair_coeff     * *

# Settings: temperature at 300 K, timestep (0.5 fs)
velocity       all create 300.0 12345 rot yes mom yes dist gaussian
fix            1 all langevin 300.0 300.0 100.0 12345
fix            2 all nve
timestep       0.5

# Output: dump atom positions every 0.5 ps and log info every 0.5 ps
dump           1 all xyz 100 water.xyz
dump_modify    1 element H C N O F S Cl
thermo_style   custom step pe ke etotal temp press vol
thermo         100

# Run the simulation: first run (5 ps)
run            1000
Generated 0 of 21 mixed pair_coeff terms from geometric mixing rule
Neighbor list info ...
  update: every = 10 steps, delay = 0 steps, check = yes
  max neighbors/atom: 2000, page size: 100000
  master list distance cutoff = 7.1
  ghost atom cutoff = 7.1
  binsize = 7.1, bins = 9 9 9
  1 neighbor lists, perpetual/occasional/extra = 1 0 0
  (1) pair ani/kk, perpetual
      attributes: full, newton on, kokkos_device
      pair build: full/bin/kk/device
      stencil: full/bin/3d
      bin: kk/device
Per MPI rank memory allocation (min/avg/max) = 10.07 | 10.07 | 10.07 Mbytes
   Step         PotEng         KinEng         TotEng          Temp          Press          Volume    
         0  -3.4177642e+08  19121.598     -3.4175729e+08  300            4046.7213      216000       
       100  -3.4177888e+08  20357.425     -3.4175852e+08  319.38896      4308.2603      216000       
       200  -3.4178086e+08  20726.533     -3.4176014e+08  325.17992      4386.375       216000       
       300  -3.4178256e+08  20823.944     -3.4176174e+08  326.70822      4406.9903      216000       
       400  -3.4178365e+08  20452.98      -3.417632e+08   320.88813      4328.4827      216000       
       500  -3.4178451e+08  20156.656     -3.4176436e+08  316.23909      4265.7715      216000       
       600  -3.4178557e+08  20134.581     -3.4176543e+08  315.89274      4261.0996      216000       
       700  -3.4178621e+08  19874.789     -3.4176633e+08  311.81686      4206.1197      216000       
       800  -3.4178698e+08  19846.848     -3.4176713e+08  311.37849      4200.2065      216000       
       900  -3.4178746e+08  19423.126     -3.4176803e+08  304.73068      4110.5338      216000       
      1000  -3.41788e+08    19656.304     -3.4176834e+08  308.38902      4159.8814      216000       
Loop time of 20.4126 on 1 procs for 1000 steps with 21384 atoms

Performance: 2.116 ns/day, 11.340 hours/ns, 48.989 timesteps/s
67.4% CPU use with 1 MPI tasks x 1 OpenMP threads

MPI task timing breakdown:
Section |  min time  |  avg time  |  max time  |%varavg| %total
---------------------------------------------------------------
Pair    | 19.997     | 19.997     | 19.997     |   0.0 | 97.97
Neigh   | 0.013337   | 0.013337   | 0.013337   |   0.0 |  0.07
Comm    | 0.12211    | 0.12211    | 0.12211    |   0.0 |  0.60
Output  | 0.1843     | 0.1843     | 0.1843     |   0.0 |  0.90
Modify  | 0.072065   | 0.072065   | 0.072065   |   0.0 |  0.35
Other   |            | 0.02349    |            |       |  0.12

Nlocal:          21384 ave       21384 max       21384 min
Histogram: 1 0 0 0 0 0 0 0 0 0
Nghost:          18949 ave       18949 max       18949 min
Histogram: 1 0 0 0 0 0 0 0 0 0
Neighs:              0 ave           0 max           0 min
Histogram: 1 0 0 0 0 0 0 0 0 0
FullNghs:   3.1535e+06 ave  3.1535e+06 max  3.1535e+06 min
Histogram: 1 0 0 0 0 0 0 0 0 0

Total # of neighbors = 3153502
Ave neighs/atom = 147.47016
Neighbor list builds = 24
Dangerous builds = 0

# write final state of simulation
# write_data    water.final
Total wall time: 0:00:23
