LAMMPS (3 Aug 2022)
OMP_NUM_THREADS environment is not set. Defaulting to 1 thread. (src/comm.cpp:98)
  using 1 OpenMP thread(s) per MPI task
Loaded 1 plugins from /blue/roitberg/apps/lammps-ani/build/
# variables
variable       lammps_ani_root getenv LAMMPS_ANI_ROOT
# kokkos needs newton_pair on for reverse communication between gpus
variable       newton_pair     index  off
variable       num_models      index  1
variable       datafile        index  20k/water.data

# Intialization
units          real
atom_style     atomic

neighbor       2.0 bin
# check yes = only build if at least one atom has moved half the skin distance or more
neigh_modify   every 10 delay 0 check yes
newton         ${newton_pair} off
newton         off off

# Atom Definition
read_data      ${datafile}
read_data      20k/water.data
Reading data file ...
  triclinic box = (-30 -30 -30) to (30 30 30) with tilt (0 0 0)
  1 by 1 by 1 MPI processor grid
  reading atoms ...
  21384 atoms
  read_data CPU = 0.107 seconds
# replicate      3 3 3
change_box     all boundary p p p
Changing box ...

# pair_style ani 5.1 model_file device num_models ani_aev ani_neighbor
# 0. model_file               = path to the model file
# 1. device                   = cuda/cpu
# 2. num_models (Optional)    = number of models to use, default as -1 to use all models
# 3. ani_aev (Optional)       = cuaev/pyaev, default as cuaev
# 4. ani_neighbor (Optional)  = full/half, default as full nbrlist
# 5. ani_precision (Optional) = single/double, default as single
pair_style     ani 5.1 ${lammps_ani_root}/tests/ani2x.pt cuda ${num_models} cuaev full single
pair_style     ani 5.1 /blue/roitberg/apps/lammps-ani/tests/ani2x.pt cuda ${num_models} cuaev full single
pair_style     ani 5.1 /blue/roitberg/apps/lammps-ani/tests/ani2x.pt cuda 1 cuaev full single
pair_coeff     * *

# Settings: temperature at 300 K, timestep (0.5 fs)
velocity       all create 300.0 12345 rot yes mom yes dist gaussian
fix            1 all langevin 300.0 300.0 100.0 12345
fix            2 all nve
timestep       0.5

# Output: dump atom positions every 0.5 ps and log info every 0.5 ps
dump           1 all xyz 100 water.xyz
dump_modify    1 element H C N O F S Cl
thermo_style   custom step pe ke etotal temp press vol
thermo         100

# Run the simulation: first run (5 ps)
run            1000
Generated 0 of 21 mixed pair_coeff terms from geometric mixing rule
Neighbor list info ...
  update: every = 10 steps, delay = 0 steps, check = yes
  max neighbors/atom: 2000, page size: 100000
  master list distance cutoff = 7.1
  ghost atom cutoff = 7.1
  binsize = 3.55, bins = 17 17 17
  1 neighbor lists, perpetual/occasional/extra = 1 0 0
  (1) pair ani, perpetual
      attributes: full, newton off
      pair build: full/bin/atomonly
      stencil: full/bin/3d
      bin: standard
Per MPI rank memory allocation (min/avg/max) = 23.95 | 23.95 | 23.95 Mbytes
   Step         PotEng         KinEng         TotEng          Temp          Press          Volume    
         0  -3.4177677e+08  19121.598     -3.4175765e+08  300            4046.7213      216000       
       100  -3.417791e+08   20440.861     -3.4175866e+08  320.69799      4325.918       216000       
       200  -3.4178106e+08  20998.132     -3.4176006e+08  329.44106      4443.8538      216000       
       300  -3.4178269e+08  20805.915     -3.4176188e+08  326.42535      4403.1747      216000       
       400  -3.4178394e+08  20593.936     -3.4176334e+08  323.09961      4358.3135      216000       
       500  -3.4178512e+08  20334.971     -3.4176479e+08  319.03669      4303.5085      216000       
       600  -3.4178621e+08  20364.429     -3.4176584e+08  319.49885      4309.7426      216000       
       700  -3.4178675e+08  19964.154     -3.4176679e+08  313.21892      4225.0322      216000       
       800  -3.4178746e+08  19809.551     -3.4176765e+08  310.79334      4192.3134      216000       
       900  -3.4178826e+08  19848.831     -3.4176841e+08  311.40959      4200.6261      216000       
      1000  -3.4178867e+08  19680.897     -3.4176899e+08  308.77487      4165.0861      216000       
Loop time of 15.0932 on 1 procs for 1000 steps with 21384 atoms

Performance: 2.862 ns/day, 8.385 hours/ns, 66.255 timesteps/s
89.2% CPU use with 1 MPI tasks x 1 OpenMP threads

MPI task timing breakdown:
Section |  min time  |  avg time  |  max time  |%varavg| %total
---------------------------------------------------------------
Pair    | 7.8869     | 7.8869     | 7.8869     |   0.0 | 52.25
Neigh   | 4.2309     | 4.2309     | 4.2309     |   0.0 | 28.03
Comm    | 0.17343    | 0.17343    | 0.17343    |   0.0 |  1.15
Output  | 0.18466    | 0.18466    | 0.18466    |   0.0 |  1.22
Modify  | 2.5773     | 2.5773     | 2.5773     |   0.0 | 17.08
Other   |            | 0.04003    |            |       |  0.27

Nlocal:          21384 ave       21384 max       21384 min
Histogram: 1 0 0 0 0 0 0 0 0 0
Nghost:          18969 ave       18969 max       18969 min
Histogram: 1 0 0 0 0 0 0 0 0 0
Neighs:              0 ave           0 max           0 min
Histogram: 1 0 0 0 0 0 0 0 0 0
FullNghs:  3.15423e+06 ave 3.15423e+06 max 3.15423e+06 min
Histogram: 1 0 0 0 0 0 0 0 0 0

Total # of neighbors = 3154234
Ave neighs/atom = 147.5044
Neighbor list builds = 23
Dangerous builds = 0

# write final state of simulation
# write_data    water.final
Total wall time: 0:00:19
