# LAMMPS data
21384 atoms
7 atom types
-30.0 30.0  xlo xhi
-30.0 30.0  ylo yhi
-30.0 30.0  zlo zhi
0.0 0.0 0.0 xy xz yz

Masses

1  1.008        # H
2 12.010700     # C
3 14.0067       # N
4 15.999        # O
5 32.06         # S
6 18.998403163  # F
7 35.45         # Cl

Atoms

1	4	-25.875	-16.321	-16.239	# O
2	1	-25.975	-15.572	-15.652	# H
3	1	-25.33	-16.938	-15.751	# H
4	4	-10.594	-12.992	-26.538	# O
5	1	-10.689	-13.87	-26.168	# H
6	1	-11.359	-12.887	-27.103	# H
7	4	-8.708	-24.733	-0.069	# O
8	1	-9.455	-25.042	0.444	# H
9	1	-9.076	-24.07	-0.653	# H
10	4	-23.032	-2.722	-25.867	# O
11	1	-23.737	-3.279	-25.537	# H
12	1	-23.007	-1.983	-25.259	# H
13	4	-8.871	-28.847	-8.265	# O
14	1	-9.031	-29.696	-8.677	# H
15	1	-8.361	-28.358	-8.911	# H
16	4	-23.285	-11.286	-8.53	# O
17	1	-23.612	-10.631	-7.912	# H
18	1	-22.343	-11.123	-8.575	# H
19	4	-18.111	-18.028	-17.919	# O
20	1	-18.706	-18.751	-17.72	# H
21	1	-17.239	-18.42	-17.891	# H
22	4	-24.117	-23.027	-21.299	# O
23	1	-24.582	-23.824	-21.552	# H
24	1	-24.093	-22.5	-22.098	# H
25	4	-14.891	-12.168	-14.395	# O
26	1	-15.702	-12.35	-14.87	# H
27	1	-14.206	-12.224	-15.062	# H
28	4	-29.36	-15.923	-21.464	# O
29	1	-30.183	-15.603	-21.836	# H
30	1	-29.087	-16.624	-22.055	# H
31	4	-11.14	-11.383	-20.716	# O
32	1	-11.527	-11.824	-19.959	# H
33	1	-11.847	-10.84	-21.064	# H
34	4	-20.932	-21.314	-12.174	# O
35	1	-21.538	-21.747	-11.572	# H
36	1	-20.602	-22.02	-12.73	# H
37	4	-18.77	-18.648	-24.296	# O
38	1	-19.354	-18.198	-23.686	# H
39	1	-18.317	-19.299	-23.76	# H
40	4	-12.529	-14.769	-12.092	# O
41	1	-12.048	-14.852	-11.268	# H
42	1	-11.864	-14.888	-12.77	# H
43	4	-7.916	-20.492	-23.664	# O
44	1	-8.005	-20.258	-24.588	# H
45	1	-7.257	-19.885	-23.326	# H
46	4	-24.381	-16.31	-21.05	# O
47	1	-24.231	-16.279	-20.105	# H
48	1	-25.242	-15.91	-21.17	# H
49	4	-0.688	-11.036	-14.798	# O
50	1	-0.348	-10.463	-14.11	# H
51	1	-0.098	-10.898	-15.539	# H
52	4	-27.463	-22.833	-1.153	# O
53	1	-26.722	-22.421	-0.707	# H
54	1	-27.133	-23.036	-2.028	# H
55	4	-17.065	-4.444	-15.802	# O
56	1	-16.132	-4.636	-15.891	# H
57	1	-17.472	-4.875	-16.553	# H
58	4	-1.959	-24.433	-24.451	# O
59	1	-2.899	-24.313	-24.587	# H
60	1	-1.78	-25.317	-24.77	# H
61	4	-11.633	-8.637	-29.319	# O
62	1	-12.287	-7.947	-29.433	# H
63	1	-11.717	-9.179	-30.103	# H
64	4	-19.311	-14.012	-23.335	# O
65	1	-18.862	-13.171	-23.251	# H
66	1	-20.119	-13.903	-22.833	# H
67	4	-11.564	-25.139	-4.954	# O
68	1	-11.881	-25.482	-4.119	# H
69	1	-11.624	-25.88	-5.557	# H
70	4	-1.196	-20.057	-14.227	# O
71	1	-2.135	-19.996	-14.401	# H
72	1	-1.139	-20.4	-13.335	# H
73	4	-27.607	-9.226	-26.154	# O
74	1	-26.814	-8.69	-26.153	# H
75	1	-27.323	-10.076	-25.818	# H
76	4	-12.018	-15.54	-19.335	# O
77	1	-12.744	-15.632	-19.952	# H
78	1	-12.292	-16.04	-18.566	# H
79	4	-20.341	-5.993	0.186	# O
80	1	-20.948	-5.402	-0.259	# H
81	1	-19.473	-5.649	-0.025	# H
82	4	-16.466	-15.318	-29.465	# O
83	1	-17.095	-16.019	-29.294	# H
84	1	-16.918	-14.733	-30.073	# H
85	4	-13.063	-7.968	-16.633	# O
86	1	-12.718	-7.092	-16.802	# H
87	1	-12.333	-8.556	-16.827	# H
88	4	-25.564	-1.21	-3.766	# O
89	1	-25.098	-1.887	-4.257	# H
90	1	-26.212	-0.869	-4.383	# H
91	4	-18.236	-6.878	-21.457	# O
92	1	-18.306	-6.114	-22.028	# H
93	1	-17.92	-7.578	-22.029	# H
94	4	-15.465	-3.947	-28.109	# O
95	1	-14.841	-3.953	-28.835	# H
96	1	-15.024	-4.432	-27.411	# H
97	4	-28.407	-22.128	-24.862	# O
98	1	-28.083	-22.916	-25.297	# H
99	1	-27.621	-21.702	-24.519	# H
100	4	-25.618	-28.301	-13.362	# O
101	1	-26.549	-28.164	-13.536	# H
102	1	-25.228	-28.425	-14.227	# H
103	4	-13.018	-15.615	-1.615	# O
104	1	-12.176	-16.013	-1.394	# H
105	1	-12.855	-15.15	-2.436	# H
106	4	-18.977	-27.815	-11.854	# O
107	1	-19.239	-26.894	-11.861	# H
108	1	-18.304	-27.868	-11.176	# H
109	4	-14.841	-29.316	-21.128	# O
110	1	-15.231	-28.568	-21.58	# H
111	1	-14.906	-30.036	-21.755	# H
112	4	-14.577	-15.961	-16.905	# O
113	1	-15.186	-16.015	-16.168	# H
114	1	-15.128	-15.74	-17.656	# H
115	4	-23.121	-3.07	-20.242	# O
116	1	-22.904	-2.187	-19.944	# H
117	1	-22.979	-3.046	-21.188	# H
118	4	-17.719	-20.92	-3.04	# O
119	1	-18.12	-20.169	-3.476	# H
120	1	-17.01	-20.544	-2.518	# H
121	4	-1.461	-14.425	-22.357	# O
122	1	-1.547	-13.847	-23.115	# H
123	1	-1.808	-13.915	-21.625	# H
124	4	-21.642	-23.612	-26.498	# O
125	1	-20.978	-23.09	-26.948	# H
126	1	-22.008	-23.019	-25.841	# H
127	4	-5.611	-20.585	-12.635	# O
128	1	-5.275	-21.478	-12.705	# H
129	1	-5.705	-20.437	-11.694	# H
130	4	-22.202	-16.226	-22.908	# O
131	1	-22.837	-16.487	-22.241	# H
132	1	-21.631	-16.988	-23.007	# H
133	4	-20.91	-27.189	-17.699	# O
134	1	-20.73	-26.733	-18.521	# H
135	1	-20.223	-26.89	-17.102	# H
136	4	-14.145	-16.003	-20.989	# O
137	1	-14.831	-15.43	-21.331	# H
138	1	-14.594	-16.825	-20.792	# H
139	4	-22.347	-12.695	-17.498	# O
140	1	-22.863	-12.102	-16.951	# H
141	1	-22.382	-13.535	-17.04	# H
142	4	-7.541	-26.391	-27.336	# O
143	1	-8.314	-26.421	-27.9	# H
144	1	-7.198	-25.504	-27.447	# H
145	4	-8.767	-9.495	-15.053	# O
146	1	-9.12	-8.958	-14.343	# H
147	1	-8.048	-8.975	-15.413	# H
148	4	-22.788	-21.793	-0.148	# O
149	1	-22.636	-21.254	0.628	# H
150	1	-21.931	-21.855	-0.569	# H
151	4	-19.586	-4.112	-3.205	# O
152	1	-19.594	-3.713	-4.075	# H
153	1	-20.38	-3.783	-2.783	# H
154	4	-18.804	-3.699	-28.442	# O
155	1	-18.745	-2.749	-28.34	# H
156	1	-18.357	-4.051	-27.673	# H
157	4	-25.309	-26.385	-17.653	# O
158	1	-26.162	-26.046	-17.927	# H
159	1	-24.765	-25.605	-17.546	# H
160	4	-16.849	-17.677	-2.942	# O
161	1	-16.422	-17.949	-3.755	# H
162	1	-16.134	-17.592	-2.312	# H
163	4	-18.63	-9.179	-17.02	# O
164	1	-18.651	-8.41	-17.591	# H
165	1	-17.709	-9.438	-17.001	# H
166	4	-14.425	-25.494	-6.792	# O
167	1	-13.873	-24.853	-7.24	# H
168	1	-14.729	-26.077	-7.487	# H
169	4	-15.463	-10.47	-22.193	# O
170	1	-15.975	-11.035	-21.615	# H
171	1	-16.089	-9.816	-22.505	# H
172	4	-25.079	-15.916	-23.946	# O
173	1	-24.753	-16.715	-23.531	# H
174	1	-25.6	-15.488	-23.267	# H
175	4	-18.054	-25.065	-11.569	# O
176	1	-17.185	-24.679	-11.676	# H
177	1	-18.23	-25.004	-10.63	# H
178	4	-26.996	-6.275	-25.007	# O
179	1	-27.436	-6.865	-24.395	# H
180	1	-26.205	-6.746	-25.269	# H
181	4	-20.605	-23.998	-16.44	# O
182	1	-21.528	-24.175	-16.259	# H
183	1	-20.451	-24.386	-17.301	# H
184	4	-23.537	-10.949	-15.789	# O
185	1	-24.199	-11.04	-15.104	# H
186	1	-22.906	-10.325	-15.431	# H
187	4	-17.269	-25.254	-16.965	# O
188	1	-16.44	-25.72	-17.077	# H
189	1	-17.626	-25.595	-16.144	# H
190	4	-19.077	-14.481	-18.099	# O
191	1	-19.925	-14.888	-18.275	# H
192	1	-19.267	-13.544	-18.044	# H
193	4	-18.718	-21.344	-20.65	# O
194	1	-18.655	-22.053	-20.009	# H
195	1	-19.323	-20.717	-20.256	# H
196	4	-22.619	-1.184	-28.32	# O
197	1	-23.315	-1.709	-28.715	# H
198	1	-22.709	-1.336	-27.379	# H
199	4	-14.306	-11.389	-25.451	# O
200	1	-14.129	-11.393	-26.391	# H
201	1	-13.748	-12.083	-25.099	# H
202	4	-23.989	-29.116	-25.537	# O
203	1	-23.14	-29.525	-25.706	# H
204	1	-23.835	-28.181	-25.669	# H
205	4	-20.584	-21.275	-23.436	# O
206	1	-20.095	-21.541	-22.657	# H
207	1	-19.977	-20.714	-23.919	# H
208	4	-19.028	-11.6	-14.034	# O
209	1	-18.393	-12.113	-14.534	# H
210	1	-19.857	-12.063	-14.151	# H
211	4	-20.923	-19.915	-20.021	# O
212	1	-20.687	-19.675	-19.125	# H
213	1	-21.856	-20.126	-19.975	# H
214	4	-21.333	-6.911	-24.273	# O
215	1	-20.832	-7.293	-23.552	# H
216	1	-20.691	-6.786	-24.972	# H
217	4	-17.805	-26.969	-23.351	# O
218	1	-17.413	-26.489	-22.621	# H
219	1	-17.17	-27.656	-23.556	# H
220	4	-27.232	-19.675	-14.061	# O
221	1	-27.798	-19.203	-14.672	# H
222	1	-27.838	-20.128	-13.474	# H
223	4	-26.203	-24.067	-11.454	# O
224	1	-25.46	-24.602	-11.732	# H
225	1	-26.954	-24.442	-11.915	# H
226	4	-22.731	-24.509	-19.23	# O
227	1	-23.346	-23.931	-19.682	# H
228	1	-22.355	-25.05	-19.924	# H
229	4	-25.506	-25.681	-21.389	# O
230	1	-26.177	-26.319	-21.149	# H
231	1	-25.244	-25.929	-22.275	# H
232	4	-11.79	-18.799	-18.908	# O
233	1	-11.206	-18.838	-19.665	# H
234	1	-12.667	-18.902	-19.275	# H
235	4	-17.38	-27.254	-27.354	# O
236	1	-17.748	-26.884	-28.156	# H
237	1	-16.721	-26.617	-27.076	# H
238	4	-6.317	-10.745	-4.377	# O
239	1	-7.051	-11.05	-3.845	# H
240	1	-5.921	-10.043	-3.86	# H
241	4	-26.0	-19.964	-10.764	# O
242	1	-25.29	-20.507	-11.108	# H
243	1	-25.86	-19.105	-11.163	# H
244	4	-16.391	-20.303	-26.832	# O
245	1	-15.914	-21.05	-26.472	# H
246	1	-15.775	-19.572	-26.769	# H
247	4	-19.315	-18.711	-29.525	# O
248	1	-19.033	-18.031	-30.137	# H
249	1	-19.402	-18.257	-28.686	# H
250	4	-23.798	-1.21	-22.608	# O
251	1	-24.373	-0.674	-22.063	# H
252	1	-23.057	-0.639	-22.811	# H
253	4	-14.357	-23.384	-21.013	# O
254	1	-14.376	-23.384	-20.056	# H
255	1	-13.455	-23.15	-21.234	# H
256	4	-13.833	-9.668	-20.159	# O
257	1	-14.099	-9.892	-21.05	# H
258	1	-14.201	-10.365	-19.616	# H
259	4	-11.159	-10.307	-16.311	# O
260	1	-10.343	-10.188	-15.826	# H
261	1	-10.953	-10.025	-17.202	# H
262	4	-22.639	-15.048	-15.894	# O
263	1	-23.255	-15.335	-15.22	# H
264	1	-22.284	-15.861	-16.255	# H
265	4	-7.837	-18.015	-21.306	# O
266	1	-7.793	-17.064	-21.398	# H
267	1	-7.178	-18.347	-21.916	# H
268	4	-28.42	-28.159	-17.621	# O
269	1	-28.326	-28.598	-18.466	# H
270	1	-28.215	-27.242	-17.802	# H
271	4	-20.198	-16.433	-9.298	# O
272	1	-20.084	-17.383	-9.31	# H
273	1	-19.771	-16.13	-10.1	# H
274	4	-24.118	-18.862	-1.647	# O
275	1	-23.311	-18.787	-1.139	# H
276	1	-24.8	-19.02	-0.994	# H
277	4	-17.365	-16.85	-15.666	# O
278	1	-17.733	-16.658	-16.529	# H
279	1	-17.014	-17.737	-15.747	# H
280	4	-19.853	-21.452	-27.054	# O
281	1	-19.196	-21.391	-27.747	# H
282	1	-19.402	-21.143	-26.268	# H
283	4	-25.289	-14.576	-6.872	# O
284	1	-25.432	-14.096	-7.688	# H
285	1	-25.025	-13.905	-6.243	# H
286	4	-27.081	-13.541	-15.637	# O
287	1	-26.468	-12.891	-15.295	# H
288	1	-27.751	-13.621	-14.958	# H
289	4	-20.023	-28.375	-20.834	# O
290	1	-19.11	-28.212	-21.071	# H
291	1	-19.98	-28.741	-19.951	# H
292	4	-17.48	-20.604	-22.956	# O
293	1	-17.072	-21.04	-23.705	# H
294	1	-17.378	-21.223	-22.233	# H
295	4	-9.314	-15.441	-19.142	# O
296	1	-9.526	-15.024	-18.307	# H
297	1	-10.165	-15.64	-19.533	# H
298	4	-11.745	-19.183	-2.403	# O
299	1	-12.056	-19.123	-3.306	# H
300	1	-10.797	-19.069	-2.467	# H
301	4	-24.93	-17.798	-11.855	# O
302	1	-24.164	-18.28	-12.167	# H
303	1	-25.307	-17.41	-12.645	# H
304	4	-25.526	-23.005	-8.905	# O
305	1	-25.62	-23.279	-9.818	# H
306	1	-25.536	-22.049	-8.939	# H
307	4	-13.197	-21.159	-8.087	# O
308	1	-13.87	-21.733	-8.453	# H
309	1	-12.612	-21.748	-7.611	# H
310	4	-12.662	-28.681	-12.628	# O
311	1	-12.85	-27.831	-12.23	# H
312	1	-13.404	-29.232	-12.38	# H
313	4	-25.639	-5.347	-16.867	# O
314	1	-24.814	-4.915	-17.09	# H
315	1	-26.122	-4.696	-16.359	# H
316	4	-23.91	-15.138	-18.557	# O
317	1	-24.529	-14.619	-19.07	# H
318	1	-24.0	-14.804	-17.664	# H
319	4	-16.555	-13.823	-21.496	# O
320	1	-16.617	-14.055	-22.422	# H
321	1	-17.216	-13.142	-21.374	# H
322	4	-21.494	-25.858	-21.388	# O
323	1	-21.133	-25.542	-22.216	# H
324	1	-21.015	-26.668	-21.211	# H
325	4	-20.774	-0.038	-10.446	# O
326	1	-20.875	-0.677	-11.151	# H
327	1	-20.223	0.649	-10.822	# H
328	4	-24.098	-3.823	-14.216	# O
329	1	-25.019	-3.595	-14.341	# H
330	1	-23.74	-3.869	-15.102	# H
331	4	-25.824	-21.956	-23.442	# O
332	1	-26.396	-21.665	-22.732	# H
333	1	-25.673	-21.17	-23.967	# H
334	4	-9.065	-21.874	-12.147	# O
335	1	-9.506	-21.556	-11.359	# H
336	1	-8.7	-21.087	-12.552	# H
337	4	-26.449	-0.801	-15.612	# O
338	1	-26.543	-1.265	-16.444	# H
339	1	-25.918	-0.033	-15.824	# H
340	4	-22.35	-14.407	-29.439	# O
341	1	-21.858	-15.09	-28.984	# H
342	1	-21.846	-13.607	-29.289	# H
343	4	-20.224	-27.112	-24.359	# O
344	1	-19.375	-27.261	-23.941	# H
345	1	-20.196	-27.641	-25.156	# H
346	4	-20.97	-13.597	-14.39	# O
347	1	-21.267	-13.986	-13.568	# H
348	1	-21.593	-13.915	-15.044	# H
349	4	-5.051	-19.287	-7.566	# O
350	1	-5.59	-19.856	-7.017	# H
351	1	-5.648	-18.597	-7.857	# H
352	4	-17.004	-23.917	-9.095	# O
353	1	-16.729	-23.003	-9.166	# H
354	1	-16.541	-24.247	-8.325	# H
355	4	-16.004	-19.977	-0.904	# O
356	1	-15.277	-20.537	-0.632	# H
357	1	-15.642	-19.442	-1.611	# H
358	4	-14.989	-22.879	-1.952	# O
359	1	-14.764	-22.954	-1.025	# H
360	1	-15.846	-23.299	-2.026	# H
361	4	-10.22	-12.975	-23.207	# O
362	1	-10.37	-12.2	-23.747	# H
363	1	-10.866	-12.907	-22.504	# H
364	4	-5.069	-14.676	-20.413	# O
365	1	-4.68	-15.409	-19.935	# H
366	1	-4.668	-14.715	-21.281	# H
367	4	-24.254	-18.446	-17.714	# O
368	1	-24.486	-18.227	-16.811	# H
369	1	-23.411	-18.016	-17.855	# H
370	4	-0.925	-27.628	-16.42	# O
371	1	-0.806	-27.273	-15.539	# H
372	1	-0.036	-27.769	-16.745	# H
373	4	-14.649	-22.134	-16.43	# O
374	1	-14.49	-22.854	-17.04	# H
375	1	-13.776	-21.868	-16.141	# H
376	4	-16.054	-2.249	-18.795	# O
377	1	-16.384	-2.359	-17.903	# H
378	1	-16.783	-1.853	-19.273	# H
379	4	-28.796	-12.184	-0.551	# O
380	1	-28.091	-11.898	0.029	# H
381	1	-28.349	-12.626	-1.272	# H
382	4	-27.52	-16.563	-18.483	# O
383	1	-27.029	-16.678	-17.669	# H
384	1	-27.603	-15.614	-18.58	# H
385	4	-25.915	-19.024	-19.809	# O
386	1	-26.638	-18.413	-19.672	# H
387	1	-25.309	-18.844	-19.089	# H
388	4	-27.526	-27.727	-20.514	# O
389	1	-28.075	-26.989	-20.781	# H
390	1	-28.114	-28.482	-20.533	# H
391	4	-26.976	-13.906	-18.404	# O
392	1	-27.021	-13.836	-17.45	# H
393	1	-26.887	-13.002	-18.707	# H
394	4	-17.422	-15.805	-13.259	# O
395	1	-17.308	-16.251	-14.099	# H
396	1	-16.603	-15.327	-13.128	# H
397	4	-14.285	-17.933	-1.975	# O
398	1	-13.448	-18.393	-1.902	# H
399	1	-14.083	-17.029	-1.733	# H
400	4	-20.501	-14.065	-26.126	# O
401	1	-20.23	-14.197	-25.217	# H
402	1	-20.09	-13.239	-26.381	# H
403	4	-21.951	-11.712	-12.73	# O
404	1	-22.183	-12.419	-12.128	# H
405	1	-21.754	-12.155	-13.555	# H
406	4	-21.976	-28.945	-15.937	# O
407	1	-21.809	-28.192	-16.504	# H
408	1	-21.411	-28.802	-15.176	# H
409	4	-17.666	-6.557	-25.968	# O
410	1	-18.425	-7.073	-26.239	# H
411	1	-16.921	-6.99	-26.384	# H
412	4	-26.14	-1.729	-23.89	# O
413	1	-26.463	-0.874	-24.175	# H
414	1	-25.256	-1.557	-23.568	# H
415	4	-27.873	-7.865	-12.14	# O
416	1	-27.154	-8.187	-12.682	# H
417	1	-27.689	-6.933	-12.025	# H
418	4	-11.005	-21.649	-24.031	# O
419	1	-10.087	-21.618	-23.76	# H
420	1	-11.151	-22.561	-24.28	# H
421	4	-24.193	-13.918	-25.688	# O
422	1	-23.401	-14.354	-26.002	# H
423	1	-24.378	-14.335	-24.846	# H
424	4	-14.361	-18.345	-26.277	# O
425	1	-13.541	-18.822	-26.154	# H
426	1	-14.532	-17.937	-25.427	# H
427	4	-16.375	-14.938	-18.744	# O
428	1	-17.16	-14.626	-18.294	# H
429	1	-16.495	-14.665	-19.653	# H
430	4	-23.261	-19.587	-13.088	# O
431	1	-22.325	-19.784	-13.126	# H
432	1	-23.665	-20.398	-12.779	# H
433	4	-20.894	-10.266	-7.9	# O
434	1	-20.129	-10.6	-8.37	# H
435	1	-20.649	-9.376	-7.645	# H
436	4	-21.108	-9.58	-28.401	# O
437	1	-21.713	-10.218	-28.023	# H
438	1	-21.224	-8.794	-27.867	# H
439	4	-16.552	-29.432	-24.875	# O
440	1	-15.735	-29.453	-24.378	# H
441	1	-16.278	-29.486	-25.791	# H
442	4	-21.865	-12.674	-20.316	# O
443	1	-21.884	-11.756	-20.589	# H
444	1	-21.999	-12.645	-19.369	# H
445	4	-18.135	-21.125	-29.182	# O
446	1	-18.523	-20.294	-29.454	# H
447	1	-17.191	-20.97	-29.208	# H
448	4	-15.941	-9.29	-10.135	# O
449	1	-16.814	-9.476	-9.791	# H
450	1	-15.882	-9.815	-10.934	# H
451	4	-21.214	-15.169	-19.488	# O
452	1	-22.097	-15.324	-19.151	# H
453	1	-21.266	-14.31	-19.908	# H
454	4	-4.22	-14.419	-14.405	# O
455	1	-3.401	-14.544	-14.884	# H
456	1	-4.165	-15.032	-13.672	# H
457	4	-15.264	-24.966	-23.264	# O
458	1	-14.708	-25.742	-23.333	# H
459	1	-14.728	-24.327	-22.794	# H
460	4	-15.255	-11.622	-1.158	# O
461	1	-14.972	-10.747	-1.427	# H
462	1	-14.735	-11.813	-0.378	# H
463	4	-15.194	-14.503	-13.139	# O
464	1	-15.083	-13.695	-13.64	# H
465	1	-14.323	-14.69	-12.789	# H
466	4	-22.268	-16.744	-3.232	# O
467	1	-22.496	-17.261	-2.459	# H
468	1	-21.57	-16.161	-2.935	# H
469	4	-11.19	-11.351	-0.458	# O
470	1	-10.822	-12.233	-0.509	# H
471	1	-10.498	-10.782	-0.795	# H
472	4	-2.543	-17.515	-17.349	# O
473	1	-3.028	-18.335	-17.262	# H
474	1	-1.68	-17.779	-17.668	# H
475	4	-10.192	-19.043	-21.181	# O
476	1	-9.289	-18.734	-21.259	# H
477	1	-10.707	-18.407	-21.678	# H
478	4	-16.32	-17.956	-21.689	# O
479	1	-17.038	-17.549	-21.203	# H
480	1	-16.605	-18.859	-21.826	# H
481	4	-25.564	-30.026	-20.848	# O
482	1	-25.042	-29.667	-20.131	# H
483	1	-26.288	-29.408	-20.951	# H
484	4	-26.798	-14.709	-22.005	# O
485	1	-27.396	-14.582	-22.741	# H
486	1	-27.27	-15.289	-21.409	# H
487	4	-16.504	-19.748	-14.579	# O
488	1	-15.878	-19.034	-14.459	# H
489	1	-15.985	-20.461	-14.954	# H
490	4	-1.194	-23.244	-14.883	# O
491	1	-1.401	-23.656	-15.721	# H
492	1	-2.018	-22.845	-14.602	# H
493	4	-23.645	-17.466	-9.198	# O
494	1	-24.232	-17.36	-9.947	# H
495	1	-23.188	-16.628	-9.131	# H
496	4	-27.802	-27.563	-14.98	# O
497	1	-28.01	-27.981	-15.816	# H
498	1	-27.237	-26.826	-15.215	# H
499	4	-9.642	-28.804	-15.606	# O
500	1	-8.751	-28.931	-15.932	# H
501	1	-9.668	-27.887	-15.331	# H
502	4	-17.043	-11.805	-25.289	# O
503	1	-17.17	-11.518	-24.385	# H
504	1	-16.11	-11.669	-25.455	# H
505	4	-18.788	-16.765	-20.369	# O
506	1	-18.503	-16.81	-19.457	# H
507	1	-19.527	-16.157	-20.36	# H
508	4	-24.707	-13.399	-28.756	# O
509	1	-23.798	-13.595	-28.527	# H
510	1	-24.901	-13.985	-29.487	# H
511	4	-24.035	-28.7	-19.161	# O
512	1	-23.287	-28.105	-19.117	# H
513	1	-24.794	-28.146	-18.977	# H
514	4	-15.959	-20.694	-19.968	# O
515	1	-16.91	-20.768	-20.05	# H
516	1	-15.619	-21.477	-20.402	# H
517	4	-16.155	-14.003	-10.085	# O
518	1	-16.613	-14.39	-10.831	# H
519	1	-15.843	-13.157	-10.409	# H
520	4	-12.07	-16.101	-15.86	# O
521	1	-13.023	-16.081	-15.78	# H
522	1	-11.751	-15.852	-14.992	# H
523	4	-12.032	-25.218	-29.666	# O
524	1	-12.944	-24.95	-29.55	# H
525	1	-11.798	-25.637	-28.837	# H
526	4	-23.914	-18.24	-26.874	# O
527	1	-24.734	-17.747	-26.911	# H
528	1	-23.276	-17.618	-26.525	# H
529	4	-9.211	-18.036	-12.399	# O
530	1	-8.665	-18.749	-12.73	# H
531	1	-9.085	-17.325	-13.028	# H
532	4	-13.9	-19.249	-20.418	# O
533	1	-14.689	-19.638	-20.041	# H
534	1	-13.663	-19.834	-21.137	# H
535	4	-18.116	-18.055	-26.86	# O
536	1	-18.4	-18.033	-25.947	# H
537	1	-17.712	-18.916	-26.966	# H
538	4	-19.393	-11.819	-17.682	# O
539	1	-20.325	-11.982	-17.539	# H
540	1	-19.312	-10.865	-17.677	# H
541	4	-13.194	-9.429	-14.031	# O
542	1	-12.455	-10.023	-14.162	# H
543	1	-13.276	-8.96	-14.862	# H
544	4	-23.614	-26.118	-23.722	# O
545	1	-23.172	-25.835	-22.922	# H
546	1	-23.219	-25.588	-24.415	# H
547	4	-12.174	-19.325	-5.286	# O
548	1	-12.945	-19.788	-5.614	# H
549	1	-11.437	-19.741	-5.732	# H
550	4	-9.003	-13.179	-28.514	# O
551	1	-8.646	-12.305	-28.673	# H
552	1	-9.591	-13.066	-27.768	# H
553	4	-2.843	-16.909	-13.47	# O
554	1	-2.495	-17.495	-12.798	# H
555	1	-3.525	-17.421	-13.905	# H
556	4	-1.514	-19.061	-20.359	# O
557	1	-1.1	-18.821	-19.53	# H
558	1	-1.094	-18.498	-21.009	# H
559	4	-15.097	-3.427	-21.133	# O
560	1	-15.16	-3.171	-20.212	# H
561	1	-15.149	-4.383	-21.12	# H
562	4	-23.564	-20.755	-20.332	# O
563	1	-24.342	-20.2	-20.389	# H
564	1	-23.803	-21.553	-20.804	# H
565	4	-12.022	-19.8	-25.66	# O
566	1	-11.432	-19.056	-25.535	# H
567	1	-11.77	-20.423	-24.979	# H
568	4	-15.432	-18.664	-17.495	# O
569	1	-14.683	-18.074	-17.584	# H
570	1	-15.154	-19.471	-17.929	# H
571	4	-24.101	-10.647	-19.503	# O
572	1	-24.764	-10.402	-18.858	# H
573	1	-24.573	-11.183	-20.14	# H
574	4	-19.463	-25.159	-18.915	# O
575	1	-19.549	-24.488	-19.593	# H
576	1	-18.616	-24.981	-18.507	# H
577	4	-21.623	-6.532	-16.814	# O
578	1	-20.832	-6.062	-17.078	# H
579	1	-22.342	-5.998	-17.151	# H
580	4	-21.994	-16.195	-25.713	# O
581	1	-21.312	-15.581	-25.984	# H
582	1	-22.07	-16.068	-24.767	# H
583	4	-21.404	-9.988	-18.343	# O
584	1	-22.304	-10.313	-18.378	# H
585	1	-21.495	-9.041	-18.235	# H
586	4	-21.49	-0.446	-25.28	# O
587	1	-20.736	-0.18	-25.807	# H
588	1	-21.334	-0.05	-24.423	# H
589	4	-25.958	-2.74	-20.047	# O
590	1	-25.023	-2.948	-20.045	# H
591	1	-25.996	-1.809	-20.265	# H
592	4	-12.139	-24.199	-23.68	# O
593	1	-11.222	-24.384	-23.882	# H
594	1	-12.628	-24.589	-24.404	# H
595	4	-5.175	-22.566	-21.39	# O
596	1	-5.065	-23.265	-22.035	# H
597	1	-4.497	-21.928	-21.61	# H
598	4	-20.346	-18.154	-22.124	# O
599	1	-19.592	-17.718	-21.727	# H
600	1	-20.718	-18.682	-21.418	# H
601	4	-12.155	-18.663	-8.927	# O
602	1	-12.418	-19.499	-8.543	# H
603	1	-12.972	-18.173	-9.02	# H
604	4	-13.589	-26.367	-10.952	# O
605	1	-12.886	-25.717	-10.955	# H
606	1	-13.799	-26.489	-10.026	# H
607	4	-18.351	-21.869	-6.393	# O
608	1	-18.076	-22.502	-5.729	# H
609	1	-18.065	-21.023	-6.049	# H
610	4	-11.657	-21.36	-12.984	# O
611	1	-11.801	-20.545	-12.503	# H
612	1	-10.741	-21.58	-12.815	# H
613	4	-22.172	-20.291	-28.098	# O
614	1	-21.297	-20.601	-27.866	# H
615	1	-22.626	-20.202	-27.26	# H
616	4	-22.529	-20.442	-3.511	# O
617	1	-22.917	-19.845	-2.871	# H
618	1	-22.127	-19.868	-4.162	# H
619	4	-16.508	-21.636	-12.218	# O
620	1	-17.424	-21.523	-11.962	# H
621	1	-16.278	-20.816	-12.655	# H
622	4	-2.863	-16.506	-23.424	# O
623	1	-3.783	-16.272	-23.546	# H
624	1	-2.465	-15.722	-23.046	# H
625	4	-24.604	-20.159	-8.456	# O
626	1	-25.508	-19.912	-8.262	# H
627	1	-24.114	-19.339	-8.401	# H
628	4	-14.297	-16.35	-8.491	# O
629	1	-15.067	-15.784	-8.547	# H
630	1	-14.251	-16.602	-7.569	# H
631	4	-24.62	-24.145	-25.46	# O
632	1	-24.058	-23.403	-25.683	# H
633	1	-24.869	-23.992	-24.548	# H
634	4	-8.496	-9.105	-8.337	# O
635	1	-8.466	-8.151	-8.411	# H
636	1	-8.779	-9.403	-9.201	# H
637	4	-13.797	-17.212	-5.673	# O
638	1	-13.044	-17.615	-5.241	# H
639	1	-14.488	-17.873	-5.617	# H
640	4	-9.688	-17.314	-8.48	# O
641	1	-10.43	-17.289	-7.877	# H
642	1	-9.962	-16.773	-9.221	# H
643	4	-6.409	-18.72	-26.659	# O
644	1	-7.301	-18.374	-26.677	# H
645	1	-5.884	-18.052	-27.1	# H
646	4	-22.116	-3.968	-6.289	# O
647	1	-21.467	-3.766	-6.963	# H
648	1	-22.923	-4.135	-6.776	# H
649	4	-11.579	-15.225	-9.274	# O
650	1	-11.156	-14.804	-8.525	# H
651	1	-12.471	-15.404	-8.976	# H
652	4	-15.02	-14.831	-6.045	# O
653	1	-14.365	-14.277	-6.47	# H
654	1	-14.509	-15.498	-5.587	# H
655	4	-9.869	-12.582	-12.743	# O
656	1	-9.139	-11.979	-12.882	# H
657	1	-9.731	-12.927	-11.861	# H
658	4	-12.273	-20.981	-15.469	# O
659	1	-11.788	-20.156	-15.467	# H
660	1	-12.233	-21.285	-14.562	# H
661	4	-12.937	-25.705	-26.306	# O
662	1	-12.673	-26.568	-25.987	# H
663	1	-13.663	-25.883	-26.905	# H
664	4	-17.853	-16.946	-6.519	# O
665	1	-17.2	-16.839	-7.211	# H
666	1	-18.168	-16.059	-6.347	# H
667	4	-20.696	-25.247	-13.321	# O
668	1	-21.518	-25.23	-13.811	# H
669	1	-20.965	-25.286	-12.403	# H
670	4	-19.711	-20.109	-17.402	# O
671	1	-19.155	-20.881	-17.51	# H
672	1	-19.813	-20.018	-16.454	# H
673	4	-18.476	-19.341	-5.367	# O
674	1	-18.221	-18.508	-5.765	# H
675	1	-19.242	-19.621	-5.868	# H
676	4	-1.165	-22.724	-27.712	# O
677	1	-1.126	-23.018	-26.802	# H
678	1	-0.456	-23.199	-28.147	# H
679	4	-17.164	-23.9	-4.144	# O
680	1	-17.774	-23.196	-3.926	# H
681	1	-17.706	-24.564	-4.57	# H
682	4	-7.922	-20.609	-0.516	# O
683	1	-7.036	-20.969	-0.569	# H
684	1	-8.496	-21.364	-0.641	# H
685	4	-12.159	-24.195	-11.648	# O
686	1	-11.256	-24.376	-11.911	# H
687	1	-12.21	-23.24	-11.605	# H
688	4	-14.1	-10.589	-5.134	# O
689	1	-14.408	-11.158	-4.429	# H
690	1	-13.146	-10.606	-5.057	# H
691	4	-17.686	-12.158	-11.525	# O
692	1	-18.396	-12.209	-12.165	# H
693	1	-17.036	-11.586	-11.933	# H
694	4	-8.419	-19.903	-16.442	# O
695	1	-9.194	-19.481	-16.071	# H
696	1	-8.296	-19.477	-17.29	# H
697	4	-26.953	-17.123	-4.391	# O
698	1	-26.461	-17.271	-5.198	# H
699	1	-27.264	-17.992	-4.136	# H
700	4	-15.316	-0.757	-3.299	# O
701	1	-14.623	-0.224	-3.69	# H
702	1	-15.658	-0.219	-2.585	# H
703	4	-24.322	-6.376	-29.918	# O
704	1	-23.901	-6.127	-29.095	# H
705	1	-23.612	-6.731	-30.452	# H
706	4	-26.968	-11.728	-28.567	# O
707	1	-26.839	-10.78	-28.538	# H
708	1	-26.123	-12.077	-28.848	# H
709	4	-24.332	-21.821	-11.748	# O
710	1	-23.733	-22.117	-11.062	# H
711	1	-24.807	-22.61	-12.008	# H
712	4	-24.085	-23.732	-6.824	# O
713	1	-24.132	-24.688	-6.839	# H
714	1	-24.738	-23.449	-7.463	# H
715	4	-26.441	-17.214	-26.725	# O
716	1	-27.274	-17.582	-26.428	# H
717	1	-26.534	-16.271	-26.589	# H
718	4	-17.916	-27.708	-4.345	# O
719	1	-18.101	-27.654	-3.408	# H
720	1	-18.321	-26.924	-4.716	# H
721	4	-26.523	-20.393	-2.853	# O
722	1	-26.287	-21.279	-3.127	# H
723	1	-25.898	-20.181	-2.16	# H
724	4	-9.88	-26.159	-14.973	# O
725	1	-9.388	-25.495	-15.456	# H
726	1	-10.732	-26.19	-15.408	# H
727	4	-20.846	-0.307	-7.496	# O
728	1	-20.061	0.238	-7.446	# H
729	1	-20.828	-0.674	-8.38	# H
730	4	-19.706	-13.074	-3.764	# O
731	1	-19.383	-13.612	-4.488	# H
732	1	-19.461	-12.18	-4.002	# H
733	4	-24.3	-23.435	-2.035	# O
734	1	-23.723	-23.212	-2.765	# H
735	1	-23.766	-23.289	-1.254	# H
736	4	-20.973	-19.896	-6.597	# O
737	1	-21.631	-19.303	-6.234	# H
738	1	-21.459	-20.692	-6.813	# H
739	4	-27.36	-20.808	-17.345	# O
740	1	-27.871	-20.187	-16.827	# H
741	1	-28.012	-21.389	-17.735	# H
742	4	-19.876	-28.233	-26.588	# O
743	1	-20.426	-28.162	-27.369	# H
744	1	-19.022	-27.902	-26.866	# H
745	4	-14.439	-4.446	-3.714	# O
746	1	-15.174	-4.999	-3.978	# H
747	1	-13.906	-4.362	-4.505	# H
748	4	-22.841	-22.856	-4.459	# O
749	1	-23.322	-22.97	-5.278	# H
750	1	-22.722	-21.91	-4.38	# H
751	4	-15.685	-19.176	-5.0	# O
752	1	-16.523	-19.31	-5.442	# H
753	1	-15.386	-20.058	-4.78	# H
754	4	-5.228	-23.926	-12.854	# O
755	1	-6.167	-23.966	-13.036	# H
756	1	-4.814	-24.255	-13.652	# H
757	4	-24.839	-18.527	-14.882	# O
758	1	-25.603	-18.947	-14.488	# H
759	1	-24.089	-18.973	-14.487	# H
760	4	-13.691	-12.15	-11.35	# O
761	1	-13.526	-11.462	-11.996	# H
762	1	-13.329	-12.942	-11.746	# H
763	4	-18.573	-28.582	-7.636	# O
764	1	-18.198	-28.701	-6.763	# H
765	1	-17.823	-28.376	-8.194	# H
766	4	-25.622	-27.961	-7.408	# O
767	1	-24.951	-27.409	-7.005	# H
768	1	-26.242	-27.342	-7.792	# H
769	4	-22.194	-13.452	-22.936	# O
770	1	-22.381	-14.382	-22.811	# H
771	1	-22.163	-13.091	-22.05	# H
772	4	-20.45	-15.151	-2.009	# O
773	1	-20.027	-14.386	-2.4	# H
774	1	-20.936	-14.801	-1.262	# H
775	4	-28.221	-29.37	-1.064	# O
776	1	-27.421	-28.924	-0.786	# H
777	1	-28.888	-28.683	-1.072	# H
778	4	-17.265	-17.782	-11.042	# O
779	1	-17.767	-18.572	-11.239	# H
780	1	-17.344	-17.245	-11.831	# H
781	4	-26.957	-2.04	-1.43	# O
782	1	-26.73	-2.234	-2.34	# H
783	1	-27.091	-1.093	-1.413	# H
784	4	-21.173	-10.717	-1.127	# O
785	1	-20.936	-11.231	-0.355	# H
786	1	-21.768	-10.045	-0.795	# H
787	4	-19.184	-25.486	-5.294	# O
788	1	-20.083	-25.423	-4.971	# H
789	1	-19.274	-25.532	-6.246	# H
790	4	-21.837	-18.588	-0.483	# O
791	1	-20.889	-18.458	-0.475	# H
792	1	-22.006	-19.174	0.255	# H
793	4	-22.585	-21.749	-7.461	# O
794	1	-22.992	-22.607	-7.343	# H
795	1	-23.098	-21.333	-8.154	# H
796	4	-24.037	-27.51	-0.348	# O
797	1	-24.593	-27.582	0.427	# H
798	1	-24.521	-27.968	-1.035	# H
799	4	-1.062	-30.091	-2.632	# O
800	1	-0.692	-29.347	-2.157	# H
801	1	-0.537	-30.152	-3.43	# H
802	4	-11.169	-26.465	-7.65	# O
803	1	-11.137	-27.379	-7.366	# H
804	1	-10.659	-26.448	-8.46	# H
805	4	-16.962	-15.594	-26.759	# O
806	1	-16.566	-15.319	-27.585	# H
807	1	-17.394	-16.423	-26.964	# H
808	4	-15.338	-28.352	-5.672	# O
809	1	-14.697	-28.445	-4.967	# H
810	1	-16.105	-27.966	-5.249	# H
811	4	-20.776	-19.164	-9.199	# O
812	1	-21.7	-19.007	-9.393	# H
813	1	-20.768	-19.452	-8.286	# H
814	4	-21.807	-12.843	-6.41	# O
815	1	-20.927	-12.928	-6.044	# H
816	1	-22.021	-11.915	-6.309	# H
817	4	-22.785	-21.99	-24.614	# O
818	1	-23.354	-21.238	-24.449	# H
819	1	-22.027	-21.847	-24.048	# H
820	4	0.12	-21.831	-18.578	# O
821	1	0.197	-22.745	-18.853	# H
822	1	-0.702	-21.532	-18.966	# H
823	4	-8.931	-20.356	-27.986	# O
824	1	-8.463	-20.979	-27.431	# H
825	1	-8.451	-20.365	-28.815	# H
826	4	-25.101	-11.143	-23.509	# O
827	1	-24.704	-10.298	-23.296	# H
828	1	-24.587	-11.47	-24.247	# H
829	4	-29.118	-0.863	-28.783	# O
830	1	-28.818	-0.351	-29.534	# H
831	1	-28.958	-1.773	-29.033	# H
832	4	-23.087	-25.426	-14.529	# O
833	1	-23.569	-24.874	-15.144	# H
834	1	-23.714	-25.611	-13.83	# H
835	4	-14.745	-21.717	-4.667	# O
836	1	-15.459	-22.35	-4.596	# H
837	1	-14.274	-21.792	-3.837	# H
838	4	-13.844	-13.161	-23.087	# O
839	1	-14.549	-13.455	-23.665	# H
840	1	-14.286	-12.919	-22.273	# H
841	4	-28.379	-20.335	-4.794	# O
842	1	-27.67	-20.459	-4.163	# H
843	1	-27.943	-20.028	-5.588	# H
844	4	-14.553	-29.835	-16.771	# O
845	1	-13.888	-30.485	-16.542	# H
846	1	-14.408	-29.116	-16.157	# H
847	4	-5.969	-10.616	-8.59	# O
848	1	-5.711	-11.5	-8.328	# H
849	1	-6.824	-10.484	-8.179	# H
850	4	-15.6	-11.801	-19.26	# O
851	1	-15.625	-11.853	-18.305	# H
852	1	-15.709	-12.707	-19.552	# H
853	4	-24.881	-25.99	-3.127	# O
854	1	-25.809	-25.855	-3.318	# H
855	1	-24.647	-25.266	-2.547	# H
856	4	-25.428	-17.235	-6.655	# O
857	1	-25.469	-16.289	-6.513	# H
858	1	-25.112	-17.328	-7.554	# H
859	4	-8.454	-27.717	-5.694	# O
860	1	-8.801	-27.88	-6.571	# H
861	1	-8.553	-28.552	-5.237	# H
862	4	-15.363	-6.853	-19.834	# O
863	1	-15.175	-6.388	-20.65	# H
864	1	-15.24	-7.777	-20.051	# H
865	4	-14.68	-17.941	-13.666	# O
866	1	-15.061	-17.183	-13.222	# H
867	1	-13.823	-18.054	-13.255	# H
868	4	-7.703	-12.185	-6.192	# O
869	1	-7.813	-12.97	-5.655	# H
870	1	-7.28	-11.554	-5.611	# H
871	4	-20.28	-12.732	-29.356	# O
872	1	-19.515	-13.107	-29.792	# H
873	1	-19.918	-12.235	-28.622	# H
874	4	-20.353	-2.169	-5.028	# O
875	1	-20.539	-2.419	-5.933	# H
876	1	-19.606	-1.574	-5.092	# H
877	4	-22.785	-18.181	-5.606	# O
878	1	-23.626	-17.86	-5.934	# H
879	1	-22.436	-17.455	-5.09	# H
880	4	-29.829	-21.188	-9.629	# O
881	1	-30.113	-21.991	-9.193	# H
882	1	-30.015	-20.493	-8.998	# H
883	4	-18.631	-20.066	-11.245	# O
884	1	-19.245	-20.724	-11.57	# H
885	1	-18.783	-20.041	-10.3	# H
886	4	-15.609	-9.061	-28.949	# O
887	1	-16.479	-8.776	-29.228	# H
888	1	-15.147	-9.255	-29.764	# H
889	4	-19.219	-20.029	-14.645	# O
890	1	-18.286	-19.836	-14.739	# H
891	1	-19.249	-20.807	-14.089	# H
892	4	-26.439	-22.805	-3.956	# O
893	1	-25.639	-23.324	-3.872	# H
894	1	-26.585	-22.741	-4.9	# H
895	4	-10.168	-14.247	-16.913	# O
896	1	-9.409	-14.295	-16.332	# H
897	1	-10.702	-15.005	-16.674	# H
898	4	-29.005	-15.816	-0.361	# O
899	1	-28.457	-15.052	-0.543	# H
900	1	-29.047	-15.859	0.594	# H
901	4	-18.65	-16.802	-1.116	# O