# LAMMPS data
300 atoms
7 atom types
0.0 15.521  xlo xhi
0.0 15.521  ylo yhi
0.0 15.521  zlo zhi
0.0 0.0 0.0 xy xz yz

Masses

1  1.008        # H
2 12.010700     # C
3 14.0067       # N
4 15.999        # O
5 32.06         # S
6 18.998403163  # F
7 35.45         # Cl

Atoms

1	4	7.252	0.937	13.092	# O
2	1	7.495	1.675	12.514	# H
3	1	6.39	1.196	13.454	# H
4	4	7.845	7.723	3.829	# O
5	1	8.407	8.414	4.212	# H
6	1	7.074	8.206	3.495	# H
7	4	7.149	9.251	13.612	# O
8	1	7.176	9.648	14.496	# H
9	1	7.797	9.763	13.105	# H
10	4	3.275	1.39	5.347	# O
11	1	3.861	1.109	4.629	# H
12	1	3.672	1.0	6.141	# H
13	4	11.724	3.883	3.098	# O
14	1	12.217	3.049	3.096	# H
15	1	12.41	4.56	3.207	# H
16	4	8.27	5.936	1.671	# O
17	1	7.899	6.817	1.511	# H
18	1	9.048	5.901	1.094	# H
19	4	8.246	6.211	5.928	# O
20	1	7.386	6.658	5.954	# H
21	1	8.877	6.928	5.76	# H
22	4	4.209	4.073	4.838	# O
23	1	3.413	3.574	4.599	# H
24	1	4.908	3.403	4.861	# H
25	4	6.434	13.27	1.403	# O
26	1	7.025	12.67	0.923	# H
27	1	5.547	12.996	1.126	# H
28	4	7.308	5.121	8.841	# O
29	1	7.639	5.416	9.703	# H
30	1	8.039	5.307	8.233	# H
31	4	13.314	5.53	10.254	# O
32	1	13.077	6.274	10.827	# H
33	1	14.178	5.78	9.891	# H
34	4	10.376	10.099	3.138	# O
35	1	10.614	10.446	2.265	# H
36	1	9.41	10.023	3.104	# H
37	4	13.923	6.171	12.901	# O
38	1	14.526	6.75	12.411	# H
39	1	14.316	6.119	13.786	# H
40	4	6.128	6.887	8.147	# O
41	1	6.701	7.666	8.21	# H
42	1	5.631	7.027	7.326	# H
43	4	8.529	7.705	12.342	# O
44	1	8.615	6.755	12.515	# H
45	1	9.296	8.094	12.789	# H
46	4	8.085	11.744	9.863	# O
47	1	7.572	10.954	10.093	# H
48	1	7.411	12.406	9.648	# H
49	4	7.245	4.641	13.483	# O
50	1	7.587	5.429	13.933	# H
51	1	7.948	3.983	13.596	# H
52	4	1.995	8.435	7.426	# O
53	1	1.673	9.278	7.075	# H
54	1	2.934	8.597	7.601	# H
55	4	8.321	13.925	12.393	# O
56	1	9.078	14.527	12.457	# H
57	1	7.551	14.505	12.498	# H
58	4	11.181	7.364	10.307	# O
59	1	10.715	8.181	10.541	# H
60	1	10.509	6.834	9.851	# H
61	4	8.092	7.918	10.126	# O
62	1	7.435	8.473	10.572	# H
63	1	8.756	8.549	9.809	# H
64	4	3.198	2.722	9.102	# O
65	1	2.659	3.528	9.085	# H
66	1	4.105	3.049	9.204	# H
67	4	6.327	1.765	3.508	# O
68	1	6.695	0.911	3.233	# H
69	1	6.192	1.665	4.463	# H
70	4	5.257	4.107	6.911	# O
71	1	4.398	3.663	6.978	# H
72	1	5.029	5.033	6.739	# H
73	4	0.961	8.599	9.961	# O
74	1	1.784	8.922	9.562	# H
75	1	1.153	7.674	10.176	# H
76	4	5.317	10.012	8.022	# O
77	1	4.429	10.354	7.836	# H
78	1	5.81	10.79	8.323	# H
79	4	2.19	10.408	14.421	# O
80	1	1.314	10.817	14.346	# H
81	1	2.803	11.131	14.218	# H
82	4	1.309	5.638	7.242	# O
83	1	0.989	6.479	7.602	# H
84	1	1.558	5.852	6.33	# H
85	4	11.598	8.005	1.41	# O
86	1	12.134	7.628	2.124	# H
87	1	12.183	8.659	0.998	# H
88	4	4.632	14.129	11.803	# O
89	1	5.461	13.629	11.827	# H
90	1	3.946	13.444	11.772	# H
91	4	10.935	11.3	6.94	# O
92	1	11.617	11.97	7.098	# H
93	1	10.143	11.817	6.728	# H
94	4	8.688	11.553	4.476	# O
95	1	9.538	12.019	4.48	# H
96	1	8.033	12.261	4.378	# H
97	4	1.789	12.243	6.452	# O
98	1	0.986	11.779	6.171	# H
99	1	2.298	11.566	6.924	# H
100	4	6.582	11.136	2.428	# O
101	1	5.628	11.13	2.256	# H
102	1	6.75	10.278	2.846	# H
103	4	10.541	7.118	7.527	# O
104	1	10.23	8.036	7.539	# H
105	1	9.757	6.601	7.77	# H
106	4	13.624	5.044	1.058	# O
107	1	13.683	6.011	1.072	# H
108	1	12.673	4.867	1.0	# H
109	4	8.212	3.509	6.671	# O
110	1	7.352	3.374	7.098	# H
111	1	8.833	3.027	7.238	# H
112	4	5.004	7.953	13.705	# O
113	1	5.273	8.241	14.59	# H
114	1	5.771	7.458	13.377	# H
115	4	2.823	3.47	13.698	# O
116	1	3.381	3.02	14.35	# H
117	1	2.292	2.756	13.313	# H
118	4	4.323	10.601	3.947	# O
119	1	4.082	11.519	3.75	# H
120	1	3.502	10.107	3.805	# H
121	4	3.975	2.436	2.17	# O
122	1	4.674	1.776	2.049	# H
123	1	4.398	3.132	2.695	# H
124	4	3.365	7.042	5.137	# O
125	1	2.679	6.617	4.601	# H
126	1	3.819	7.629	4.514	# H
127	4	9.038	11.068	14.546	# O
128	1	9.52	10.237	14.419	# H
129	1	9.666	11.749	14.26	# H
130	4	2.697	4.65	2.825	# O
131	1	3.384	5.256	2.506	# H
132	1	2.008	4.7	2.145	# H
133	4	3.372	5.607	8.08	# O
134	1	3.704	6.451	7.739	# H
135	1	3.946	5.418	8.838	# H
136	4	14.561	11.37	6.074	# O
137	1	13.647	11.678	5.984	# H
138	1	14.48	10.406	6.125	# H
139	4	4.266	8.13	9.804	# O
140	1	5.232	8.192	9.756	# H
141	1	3.96	8.993	9.487	# H
142	4	1.506	1.835	7.655	# O
143	1	0.994	2.556	8.052	# H
144	1	1.048	1.033	7.95	# H
145	4	13.423	10.953	12.639	# O
146	1	13.318	10.06	12.276	# H
147	1	12.742	11.472	12.185	# H
148	4	13.141	9.533	7.844	# O
149	1	12.254	9.248	8.111	# H
150	1	13.078	10.499	7.813	# H
151	4	8.422	9.275	7.575	# O
152	1	8.818	9.842	6.896	# H
153	1	7.829	9.869	8.06	# H
154	4	6.258	8.521	0.962	# O
155	1	5.978	7.876	1.629	# H
156	1	5.664	9.274	1.1	# H
157	4	10.114	2.243	11.927	# O
158	1	9.31	2.783	11.962	# H
159	1	10.043	1.771	11.084	# H
160	4	7.606	11.987	13.152	# O
161	1	6.884	12.302	13.717	# H
162	1	7.169	11.763	12.317	# H
163	4	4.455	5.695	13.553	# O
164	1	4.301	5.031	14.242	# H
165	1	5.21	5.346	13.055	# H
166	4	13.382	2.829	8.344	# O
167	1	13.473	3.659	8.836	# H
168	1	13.43	3.1	7.415	# H
169	4	13.913	1.687	3.388	# O
170	1	14.546	0.957	3.462	# H
171	1	14.472	2.475	3.309	# H
172	4	2.11	13.722	13.209	# O
173	1	1.853	14.521	13.693	# H
174	1	1.711	13.001	13.718	# H
175	4	10.614	3.774	14.453	# O
176	1	10.821	3.792	13.507	# H
177	1	9.891	4.413	14.548	# H
178	4	11.937	9.898	14.527	# O
179	1	11.622	10.481	13.82	# H
180	1	11.99	9.026	14.105	# H
181	4	10.371	9.849	9.155	# O
182	1	9.806	10.508	8.724	# H
183	1	11.074	10.375	9.565	# H
184	4	3.149	12.861	2.244	# O
185	1	2.372	12.456	2.658	# H
186	1	3.506	12.159	1.678	# H
187	4	6.617	0.92	6.488	# O
188	1	7.486	1.321	6.34	# H
189	1	6.039	1.676	6.677	# H
190	4	1.907	8.263	12.714	# O
191	1	0.99	7.95	12.697	# H
192	1	2.001	8.759	11.887	# H
193	4	9.594	14.598	5.117	# O
194	1	10.179	14.12	4.511	# H
195	1	8.968	13.923	5.421	# H
196	4	1.895	1.593	10.467	# O
197	1	2.651	1.003	10.605	# H
198	1	1.13	0.998	10.466	# H
199	4	2.182	11.476	11.257	# O
200	1	1.69	12.275	11.5	# H
201	1	2.07	11.415	10.296	# H
202	4	10.088	13.571	8.126	# O
203	1	10.237	12.864	8.772	# H
204	1	10.976	13.911	7.942	# H
205	4	0.951	4.191	4.082	# O
206	1	1.166	3.334	3.684	# H
207	1	1.358	4.151	4.96	# H
208	4	8.208	14.252	2.211	# O
209	1	9.092	14.274	2.607	# H
210	1	8.351	14.554	1.302	# H
211	4	4.897	2.634	12.719	# O
212	1	5.611	3.248	12.49	# H
213	1	4.577	2.316	11.861	# H
214	4	9.747	0.99	13.695	# O
215	1	10.675	1.129	13.937	# H
216	1	9.301	1.794	14.003	# H
217	4	11.048	7.011	13.525	# O
218	1	10.435	6.518	14.091	# H
219	1	11.797	6.406	13.409	# H
220	4	5.633	6.348	4.288	# O
221	1	5.879	6.163	3.369	# H
222	1	5.85	5.528	4.758	# H
223	4	5.371	5.757	1.04	# O
224	1	5.027	4.851	1.002	# H
225	1	4.577	6.311	0.99	# H
226	4	10.862	12.997	1.161	# O
227	1	10.213	12.588	1.754	# H
228	1	10.504	13.882	0.997	# H
229	4	13.746	7.808	9.154	# O
230	1	14.521	7.983	9.708	# H
231	1	14.118	7.422	8.346	# H
232	4	8.734	8.794	1.038	# O
233	1	9.437	8.401	1.577	# H
234	1	8.982	9.73	0.977	# H
235	4	12.872	13.879	1.24	# O
236	1	13.411	14.524	1.722	# H
237	1	12.983	13.058	1.744	# H
238	4	2.278	9.217	2.174	# O
239	1	2.755	9.505	1.381	# H
240	1	1.77	9.999	2.439	# H
241	4	12.899	12.974	4.383	# O
242	1	12.423	13.649	3.875	# H
243	1	13.649	12.739	3.815	# H
244	4	5.503	10.659	13.252	# O
245	1	4.862	11.375	13.126	# H
246	1	5.132	9.92	12.745	# H
247	4	3.592	12.582	8.375	# O
248	1	3.193	13.403	8.05	# H
249	1	4.545	12.76	8.352	# H
250	4	4.949	14.553	6.133	# O
251	1	4.03	14.252	6.205	# H
252	1	5.359	14.25	6.957	# H
253	4	7.267	1.822	9.666	# O
254	1	6.524	1.355	9.255	# H
255	1	7.9	1.118	9.874	# H
256	4	10.006	10.537	11.646	# O
257	1	10.86	10.096	11.77	# H
258	1	10.228	11.48	11.635	# H
259	4	1.596	6.58	14.294	# O
260	1	1.083	5.879	13.865	# H
261	1	2.431	6.148	14.53	# H
262	4	11.43	2.22	6.073	# O
263	1	11.003	2.366	6.93	# H
264	1	11.71	3.106	5.797	# H
265	4	3.031	6.515	11.907	# O
266	1	3.842	7.012	11.722	# H
267	1	3.172	5.663	11.468	# H
268	4	12.172	10.178	5.344	# O
269	1	11.754	10.899	4.85	# H
270	1	12.201	9.446	4.71	# H
271	4	9.719	4.529	9.471	# O
272	1	10.327	4.412	8.726	# H
273	1	9.475	3.624	9.719	# H
274	4	5.57	4.097	10.464	# O
275	1	5.704	5.02	10.728	# H
276	1	6.464	3.723	10.457	# H
277	4	5.458	13.936	3.209	# O
278	1	5.881	14.531	3.846	# H
279	1	4.874	14.517	2.698	# H
280	4	10.564	5.087	11.529	# O
281	1	10.89	4.201	11.311	# H
282	1	9.629	4.947	11.744	# H
283	4	5.308	11.227	10.971	# O
284	1	4.378	10.957	10.935	# H
285	1	5.376	11.922	10.298	# H
286	4	12.207	5.896	6.751	# O
287	1	12.193	5.254	6.025	# H
288	1	12.668	5.431	7.466	# H
289	4	7.233	3.707	3.297	# O
290	1	7.686	4.562	3.252	# H
291	1	7.168	3.427	2.371	# H
292	4	8.471	14.538	9.83	# O
293	1	7.627	14.494	10.305	# H
294	1	8.221	14.437	8.899	# H
295	4	5.519	9.175	5.787	# O
296	1	5.778	8.299	5.462	# H
297	1	4.575	9.081	5.987	# H
298	4	14.391	2.655	10.922	# O
299	1	14.522	3.602	10.768	# H
300	1	13.432	2.565	11.029	# H
