# LAMMPS data
22 atoms
7 atom types

0 bonds
0 bond types  # defined bond types: , detected bond types: 

-15.7075 15.7075  xlo xhi
-15.7075 15.7075  ylo yhi
-14.645 14.645  zlo zhi
0.0 0.0 0.0 xy xz yz

Masses

1  1.008        # H
2 12.010700     # C
3 14.0067       # N
4 15.999        # O
5 32.06         # S
6 18.998403163  # F
7 35.45         # Cl

Atoms

1	1	-2.017	-3.902	0.637	# H
2	2	-2.017	-2.812	0.637	# C
3	1	-2.531	-2.448	1.527	# H
4	1	-2.531	-2.448	-0.253	# H
5	2	-0.59	-2.261	0.637	# C
6	4	0.374	-3.025	0.637	# O
7	3	-0.462	-0.932	0.637	# N
8	1	-1.284	-0.346	0.637	# H
9	2	0.836	-0.288	0.637	# C
10	1	1.391	-0.586	1.527	# H
11	2	1.644	-0.681	-0.595	# C
12	1	1.106	-0.381	-1.494	# H
13	1	2.613	-0.183	-0.569	# H
14	1	1.792	-1.761	-0.604	# H
15	2	0.696	1.227	0.637	# C
16	4	-0.416	1.751	0.637	# O
17	3	1.829	1.933	0.637	# N
18	1	2.72	1.457	0.637	# H
19	2	1.829	3.382	0.637	# C
20	1	0.802	3.746	0.637	# H
21	1	2.343	3.746	1.527	# H
22	1	2.343	3.746	-0.253	# H

