LAMMPS (3 Aug 2022)
OMP_NUM_THREADS environment is not set. Defaulting to 1 thread. (src/comm.cpp:98)
  using 1 OpenMP thread(s) per MPI task
Loaded 1 plugins from /blue/roitberg/apps/lammps-ani/build/
# variables
variable       lammps_ani_root getenv LAMMPS_ANI_ROOT
# kokkos needs newton_pair on for reverse communication between gpus
variable       newton_pair     index  off
variable       num_models      index  1
variable       datafile        index  20k/water.data

# Intialization
units          real
atom_style     atomic

neighbor       2.0 bin
# check yes = only build if at least one atom has moved half the skin distance or more
neigh_modify   every 10 delay 0 check yes
newton         ${newton_pair} off
newton         off off

# Atom Definition
read_data      ${datafile}
read_data      300k/water.data
Reading data file ...
  triclinic box = (0 0 0) to (146.208 146.041 146.019) with tilt (0 0 0)
  1 by 1 by 1 MPI processor grid
  reading atoms ...
  305484 atoms
  read_data CPU = 1.481 seconds
# replicate      3 3 3
change_box     all boundary p p p
Changing box ...

# pair_style ani 5.1 model_file device num_models ani_aev ani_neighbor
# 0. model_file               = path to the model file
# 1. device                   = cuda/cpu
# 2. num_models (Optional)    = number of models to use, default as -1 to use all models
# 3. ani_aev (Optional)       = cuaev/pyaev, default as cuaev
# 4. ani_neighbor (Optional)  = full/half, default as full nbrlist
# 5. ani_precision (Optional) = single/double, default as single
pair_style     ani 5.1 ${lammps_ani_root}/tests/ani2x.pt cuda ${num_models} cuaev full single
pair_style     ani 5.1 /blue/roitberg/apps/lammps-ani/tests/ani2x.pt cuda ${num_models} cuaev full single
pair_style     ani 5.1 /blue/roitberg/apps/lammps-ani/tests/ani2x.pt cuda 1 cuaev full single
pair_coeff     * *

# Settings: temperature at 300 K, timestep (0.5 fs)
velocity       all create 300.0 12345 rot yes mom yes dist gaussian
fix            1 all langevin 300.0 300.0 100.0 12345
fix            2 all nve
timestep       0.5

# Output: dump atom positions every 0.5 ps and log info every 0.5 ps
dump           1 all xyz 100 water.xyz
dump_modify    1 element H C N O F S Cl
thermo_style   custom step pe ke etotal temp press vol
thermo         100

# Run the simulation: first run (5 ps)
run            1000
Generated 0 of 21 mixed pair_coeff terms from geometric mixing rule
Neighbor list info ...
  update: every = 10 steps, delay = 0 steps, check = yes
  max neighbors/atom: 2000, page size: 100000
  master list distance cutoff = 7.1
  ghost atom cutoff = 7.1
  binsize = 3.55, bins = 42 42 42
  1 neighbor lists, perpetual/occasional/extra = 1 0 0
  (1) pair ani, perpetual
      attributes: full, newton off
      pair build: full/bin/atomonly
      stencil: full/bin/3d
      bin: standard
Per MPI rank memory allocation (min/avg/max) = 276.9 | 276.9 | 276.9 Mbytes
   Step         PotEng         KinEng         TotEng          Temp          Press          Volume    
         0  -4.8824847e+09  273176.04     -4.8822116e+09  300            4005.1626      3117850.6    
       100  -4.8825175e+09  291417.5      -4.8822261e+09  320.03264      4272.6092      3117850.6    
       200  -4.8825503e+09  298983.17     -4.8822513e+09  328.34121      4383.5331      3117850.6    
       300  -4.8825748e+09  298327.64     -4.8822765e+09  327.62131      4373.922       3117850.6    
       400  -4.8825938e+09  294569.1      -4.8822992e+09  323.49371      4318.8163      3117850.6    
       500  -4.8826092e+09  290662.71     -4.8823185e+09  319.20373      4261.5428      3117850.6    
       600  -4.882623e+09   288036.21     -4.8823349e+09  316.31933      4223.0345      3117850.6    
       700  -4.8826342e+09  285418.49     -4.8823488e+09  313.44458      4184.655       3117850.6    
       800  -4.8826445e+09  284433.98     -4.88236e+09    312.36339      4170.2205      3117850.6    
       900  -4.8826532e+09  283004.44     -4.8823702e+09  310.79348      4149.2614      3117850.6    
      1000  -4.8826598e+09  281203.08     -4.8823786e+09  308.81524      4122.8508      3117850.6    
Loop time of 228.822 on 1 procs for 1000 steps with 305484 atoms

Performance: 0.189 ns/day, 127.124 hours/ns, 4.370 timesteps/s
88.3% CPU use with 1 MPI tasks x 1 OpenMP threads

MPI task timing breakdown:
Section |  min time  |  avg time  |  max time  |%varavg| %total
---------------------------------------------------------------
Pair    | 91.889     | 91.889     | 91.889     |   0.0 | 40.16
Neigh   | 93.67      | 93.67      | 93.67      |   0.0 | 40.94
Comm    | 2.7253     | 2.7253     | 2.7253     |   0.0 |  1.19
Output  | 2.8752     | 2.8752     | 2.8752     |   0.0 |  1.26
Modify  | 36.811     | 36.811     | 36.811     |   0.0 | 16.09
Other   |            | 0.853      |            |       |  0.37

Nlocal:         305484 ave      305484 max      305484 min
Histogram: 1 0 0 0 0 0 0 0 0 0
Nghost:          98284 ave       98284 max       98284 min
Histogram: 1 0 0 0 0 0 0 0 0 0
Neighs:              0 ave           0 max           0 min
Histogram: 1 0 0 0 0 0 0 0 0 0
FullNghs:   4.4638e+07 ave  4.4638e+07 max  4.4638e+07 min
Histogram: 1 0 0 0 0 0 0 0 0 0

Total # of neighbors = 44638000
Ave neighs/atom = 146.12222
Neighbor list builds = 28
Dangerous builds = 0

# write final state of simulation
# write_data    water.final
Total wall time: 0:03:58
