LAMMPS (3 Aug 2022)
OMP_NUM_THREADS environment is not set. Defaulting to 1 thread. (src/comm.cpp:98)
  using 1 OpenMP thread(s) per MPI task
Loaded 1 plugins from /blue/roitberg/apps/lammps-ani/build/
# variables
variable       lammps_ani_root getenv LAMMPS_ANI_ROOT
# kokkos needs newton_pair on for reverse communication between gpus
variable       newton_pair     index  off
variable       num_models      index  1
variable       datafile        index  20k/water.data

# Intialization
units          real
atom_style     atomic

neighbor       2.0 bin
# check yes = only build if at least one atom has moved half the skin distance or more
neigh_modify   every 10 delay 0 check yes
newton         ${newton_pair} off
newton         off off

# Atom Definition
read_data      ${datafile}
read_data      300k/water.data
Reading data file ...
  triclinic box = (0 0 0) to (146.208 146.041 146.019) with tilt (0 0 0)
  2 by 2 by 2 MPI processor grid
  reading atoms ...
  305484 atoms
  read_data CPU = 1.397 seconds
# replicate      3 3 3
change_box     all boundary p p p
Changing box ...

# pair_style ani 5.1 model_file device num_models ani_aev ani_neighbor
# 0. model_file               = path to the model file
# 1. device                   = cuda/cpu
# 2. num_models (Optional)    = number of models to use, default as -1 to use all models
# 3. ani_aev (Optional)       = cuaev/pyaev, default as cuaev
# 4. ani_neighbor (Optional)  = full/half, default as full nbrlist
# 5. ani_precision (Optional) = single/double, default as single
pair_style     ani 5.1 ${lammps_ani_root}/tests/ani2x.pt cuda ${num_models} cuaev full single
pair_style     ani 5.1 /blue/roitberg/apps/lammps-ani/tests/ani2x.pt cuda ${num_models} cuaev full single
pair_style     ani 5.1 /blue/roitberg/apps/lammps-ani/tests/ani2x.pt cuda 1 cuaev full single
pair_coeff     * *

# Settings: temperature at 300 K, timestep (0.5 fs)
velocity       all create 300.0 12345 rot yes mom yes dist gaussian
fix            1 all langevin 300.0 300.0 100.0 12345
fix            2 all nve
timestep       0.5

# Output: dump atom positions every 0.5 ps and log info every 0.5 ps
dump           1 all xyz 100 water.xyz
dump_modify    1 element H C N O F S Cl
thermo_style   custom step pe ke etotal temp press vol
thermo         100

# Run the simulation: first run (5 ps)
run            1000
Generated 0 of 21 mixed pair_coeff terms from geometric mixing rule
Neighbor list info ...
  update: every = 10 steps, delay = 0 steps, check = yes
  max neighbors/atom: 2000, page size: 100000
  master list distance cutoff = 7.1
  ghost atom cutoff = 7.1
  binsize = 3.55, bins = 42 42 42
  1 neighbor lists, perpetual/occasional/extra = 1 0 0
  (1) pair ani, perpetual
      attributes: full, newton off
      pair build: full/bin/atomonly
      stencil: full/bin/3d
      bin: standard
Per MPI rank memory allocation (min/avg/max) = 37.9 | 38.01 | 38.28 Mbytes
   Step         PotEng         KinEng         TotEng          Temp          Press          Volume    
         0  -4.8824851e+09  273176.04     -4.8822119e+09  300            4005.1626      3117850.6    
       100  -4.8825178e+09  290781.58     -4.882227e+09   319.33428      4263.2857      3117850.6    
       200  -4.8825501e+09  299120.43     -4.882251e+09   328.49195      4385.5456      3117850.6    
       300  -4.8825743e+09  298023.1      -4.8822763e+09  327.28687      4369.4571      3117850.6    
       400  -4.8825932e+09  294006.21     -4.8822991e+09  322.87555      4310.5636      3117850.6    
       500  -4.8826089e+09  290850.19     -4.882318e+09   319.40962      4264.2916      3117850.6    
       600  -4.8826225e+09  288096.59     -4.8823344e+09  316.38565      4223.9199      3117850.6    
       700  -4.8826344e+09  286266.12     -4.8823481e+09  314.37543      4197.0824      3117850.6    
       800  -4.8826442e+09  283863.39     -4.8823603e+09  311.73677      4161.8549      3117850.6    
       900  -4.8826532e+09  282815.35     -4.8823704e+09  310.58583      4146.4891      3117850.6    
      1000  -4.8826606e+09  281165.47     -4.8823794e+09  308.77394      4122.2994      3117850.6    
Loop time of 30.5583 on 8 procs for 1000 steps with 305484 atoms

Performance: 1.414 ns/day, 16.977 hours/ns, 32.724 timesteps/s
90.3% CPU use with 8 MPI tasks x 1 OpenMP threads

MPI task timing breakdown:
Section |  min time  |  avg time  |  max time  |%varavg| %total
---------------------------------------------------------------
Pair    | 14.503     | 14.576     | 14.664     |   1.2 | 47.70
Neigh   | 9.7668     | 9.8331     | 9.943      |   1.7 | 32.18
Comm    | 0.83662    | 0.91023    | 0.98136    |   4.9 |  2.98
Output  | 0.48177    | 0.48246    | 0.48428    |   0.1 |  1.58
Modify  | 4.6099     | 4.628      | 4.6574     |   0.6 | 15.14
Other   |            | 0.1284     |            |       |  0.42

Nlocal:        38185.5 ave       38401 max       37946 min
Histogram: 1 0 0 1 2 2 0 1 0 1
Nghost:        26901.5 ave       27022 max       26755 min
Histogram: 1 0 2 0 1 0 0 2 1 1
Neighs:              0 ave           0 max           0 min
Histogram: 8 0 0 0 0 0 0 0 0 0
FullNghs:  5.57946e+06 ave 5.64007e+06 max 5.51727e+06 min
Histogram: 1 0 0 1 3 1 0 1 0 1

Total # of neighbors = 44635680
Ave neighs/atom = 146.11462
Neighbor list builds = 29
Dangerous builds = 0

# write final state of simulation
# write_data    water.final
Total wall time: 0:00:36
