LAMMPS (3 Aug 2022)
KOKKOS mode is enabled (src/KOKKOS/kokkos.cpp:106)
  will use up to 1 GPU(s) per node
  using 1 OpenMP thread(s) per MPI task
Loaded 1 plugins from /blue/roitberg/apps/lammps-ani/build/
package kokkos
package kokkos gpu/aware on
# variables
variable       lammps_ani_root getenv LAMMPS_ANI_ROOT
# kokkos needs newton_pair on for reverse communication between gpus
variable       newton_pair     index  off
variable       num_models      index  1
variable       datafile        index  20k/water.data

# Intialization
units          real
atom_style     atomic

neighbor       2.0 bin
# check yes = only build if at least one atom has moved half the skin distance or more
neigh_modify   every 10 delay 0 check yes
newton         ${newton_pair} off
newton         on off

# Atom Definition
read_data      ${datafile}
read_data      300k/water.data
Reading data file ...
  triclinic box = (0 0 0) to (146.208 146.041 146.019) with tilt (0 0 0)
  1 by 1 by 1 MPI processor grid
  reading atoms ...
  305484 atoms
  read_data CPU = 1.735 seconds
# replicate      3 3 3
change_box     all boundary p p p
Changing box ...

# pair_style ani 5.1 model_file device num_models ani_aev ani_neighbor
# 0. model_file               = path to the model file
# 1. device                   = cuda/cpu
# 2. num_models (Optional)    = number of models to use, default as -1 to use all models
# 3. ani_aev (Optional)       = cuaev/pyaev, default as cuaev
# 4. ani_neighbor (Optional)  = full/half, default as full nbrlist
# 5. ani_precision (Optional) = single/double, default as single
pair_style     ani 5.1 ${lammps_ani_root}/tests/ani2x.pt cuda ${num_models} cuaev full single
pair_style     ani 5.1 /blue/roitberg/apps/lammps-ani/tests/ani2x.pt cuda ${num_models} cuaev full single
pair_style     ani 5.1 /blue/roitberg/apps/lammps-ani/tests/ani2x.pt cuda 8 cuaev full single
pair_coeff     * *

# Settings: temperature at 300 K, timestep (0.5 fs)
velocity       all create 300.0 12345 rot yes mom yes dist gaussian
fix            1 all langevin 300.0 300.0 100.0 12345
fix            2 all nve
timestep       0.5

# Output: dump atom positions every 0.5 ps and log info every 0.5 ps
dump           1 all xyz 100 water.xyz
dump_modify    1 element H C N O F S Cl
thermo_style   custom step pe ke etotal temp press vol
thermo         100

# Run the simulation: first run (5 ps)
run            1000
Generated 0 of 21 mixed pair_coeff terms from geometric mixing rule
Neighbor list info ...
  update: every = 10 steps, delay = 0 steps, check = yes
  max neighbors/atom: 2000, page size: 100000
  master list distance cutoff = 7.1
  ghost atom cutoff = 7.1
  binsize = 7.1, bins = 21 21 21
  1 neighbor lists, perpetual/occasional/extra = 1 0 0
  (1) pair ani/kk, perpetual
      attributes: full, newton on, kokkos_device
      pair build: full/bin/kk/device
      stencil: full/bin/3d
      bin: kk/device
Per MPI rank memory allocation (min/avg/max) = 99.37 | 99.37 | 99.37 Mbytes
   Step         PotEng         KinEng         TotEng          Temp          Press          Volume    
         0  -4.8824796e+09  273176.04     -4.8822064e+09  300            4005.1626      3117850.6    
       100  -4.8825144e+09  291670.36     -4.8822228e+09  320.31033      4276.3165      3117850.6    
       200  -4.8825452e+09  298119.75     -4.882247e+09   327.39301      4370.8741      3117850.6    
       300  -4.8825697e+09  297393.79     -4.8822723e+09  326.59577      4360.2305      3117850.6    
       400  -4.8825876e+09  292691.62     -4.882295e+09   321.43187      4291.2897      3117850.6    
       500  -4.882602e+09   289719.27     -4.8823123e+09  318.16765      4247.7106      3117850.6    
       600  -4.8826143e+09  287421.1      -4.8823269e+09  315.64383      4214.0162      3117850.6    
       700  -4.8826255e+09  285303.77     -4.8823402e+09  313.31859      4182.973       3117850.6    
       800  -4.8826342e+09  283195.52     -4.882351e+09   311.00332      4152.0629      3117850.6    
       900  -4.8826429e+09  282396.46     -4.8823605e+09  310.1258       4140.3476      3117850.6    
      1000  -4.8826501e+09  281304.35     -4.8823688e+09  308.92645      4124.3355      3117850.6    
Loop time of 268.449 on 1 procs for 1000 steps with 305484 atoms

Performance: 0.161 ns/day, 149.138 hours/ns, 3.725 timesteps/s
65.4% CPU use with 1 MPI tasks x 1 OpenMP threads

MPI task timing breakdown:
Section |  min time  |  avg time  |  max time  |%varavg| %total
---------------------------------------------------------------
Pair    | 264.55     | 264.55     | 264.55     |   0.0 | 98.55
Neigh   | 0.11021    | 0.11021    | 0.11021    |   0.0 |  0.04
Comm    | 0.26281    | 0.26281    | 0.26281    |   0.0 |  0.10
Output  | 2.8556     | 2.8556     | 2.8556     |   0.0 |  1.06
Modify  | 0.10917    | 0.10917    | 0.10917    |   0.0 |  0.04
Other   |            | 0.5657     |            |       |  0.21

Nlocal:         305484 ave      305484 max      305484 min
Histogram: 1 0 0 0 0 0 0 0 0 0
Nghost:          97837 ave       97837 max       97837 min
Histogram: 1 0 0 0 0 0 0 0 0 0
Neighs:              0 ave           0 max           0 min
Histogram: 1 0 0 0 0 0 0 0 0 0
FullNghs:  4.46269e+07 ave 4.46269e+07 max 4.46269e+07 min
Histogram: 1 0 0 0 0 0 0 0 0 0

Total # of neighbors = 44626904
Ave neighs/atom = 146.0859
Neighbor list builds = 26
Dangerous builds = 0

# write final state of simulation
# write_data    water.final
Total wall time: 0:04:37
