LAMMPS (3 Aug 2022)
OMP_NUM_THREADS environment is not set. Defaulting to 1 thread. (src/comm.cpp:98)
  using 1 OpenMP thread(s) per MPI task
Loaded 1 plugins from /blue/roitberg/apps/lammps-ani/build/
# variables
variable       lammps_ani_root getenv LAMMPS_ANI_ROOT
# kokkos needs newton_pair on for reverse communication between gpus
variable       newton_pair     index  off
variable       num_models      index  1
variable       datafile        index  20k/water.data

# Intialization
units          real
atom_style     atomic

neighbor       2.0 bin
# check yes = only build if at least one atom has moved half the skin distance or more
neigh_modify   every 10 delay 0 check yes
newton         ${newton_pair} off
newton         off off

# Atom Definition
read_data      ${datafile}
read_data      300k/water.data
Reading data file ...
  triclinic box = (0 0 0) to (146.208 146.041 146.019) with tilt (0 0 0)
  2 by 2 by 2 MPI processor grid
  reading atoms ...
  305484 atoms
  read_data CPU = 1.425 seconds
# replicate      3 3 3
change_box     all boundary p p p
Changing box ...

# pair_style ani 5.1 model_file device num_models ani_aev ani_neighbor
# 0. model_file               = path to the model file
# 1. device                   = cuda/cpu
# 2. num_models (Optional)    = number of models to use, default as -1 to use all models
# 3. ani_aev (Optional)       = cuaev/pyaev, default as cuaev
# 4. ani_neighbor (Optional)  = full/half, default as full nbrlist
# 5. ani_precision (Optional) = single/double, default as single
pair_style     ani 5.1 ${lammps_ani_root}/tests/ani2x.pt cuda ${num_models} cuaev full single
pair_style     ani 5.1 /blue/roitberg/apps/lammps-ani/tests/ani2x.pt cuda ${num_models} cuaev full single
pair_style     ani 5.1 /blue/roitberg/apps/lammps-ani/tests/ani2x.pt cuda 8 cuaev full single
pair_coeff     * *

# Settings: temperature at 300 K, timestep (0.5 fs)
velocity       all create 300.0 12345 rot yes mom yes dist gaussian
fix            1 all langevin 300.0 300.0 100.0 12345
fix            2 all nve
timestep       0.5

# Output: dump atom positions every 0.5 ps and log info every 0.5 ps
dump           1 all xyz 100 water.xyz
dump_modify    1 element H C N O F S Cl
thermo_style   custom step pe ke etotal temp press vol
thermo         100

# Run the simulation: first run (5 ps)
run            1000
Generated 0 of 21 mixed pair_coeff terms from geometric mixing rule
Neighbor list info ...
  update: every = 10 steps, delay = 0 steps, check = yes
  max neighbors/atom: 2000, page size: 100000
  master list distance cutoff = 7.1
  ghost atom cutoff = 7.1
  binsize = 3.55, bins = 42 42 42
  1 neighbor lists, perpetual/occasional/extra = 1 0 0
  (1) pair ani, perpetual
      attributes: full, newton off
      pair build: full/bin/atomonly
      stencil: full/bin/3d
      bin: standard
Per MPI rank memory allocation (min/avg/max) = 37.9 | 38.01 | 38.28 Mbytes
   Step         PotEng         KinEng         TotEng          Temp          Press          Volume    
         0  -4.8824803e+09  273176.04     -4.8822071e+09  300            4005.1626      3117850.6    
       100  -4.8825137e+09  290973.19     -4.8822227e+09  319.54471      4266.095       3117850.6    
       200  -4.8825459e+09  298502.85     -4.8822474e+09  327.81372      4376.4908      3117850.6    
       300  -4.8825702e+09  297495.79     -4.8822727e+09  326.70778      4361.7259      3117850.6    
       400  -4.8825875e+09  293155.83     -4.8822943e+09  321.94167      4298.0958      3117850.6    
       500  -4.8826034e+09  291029.76     -4.8823124e+09  319.60683      4266.9244      3117850.6    
       600  -4.8826164e+09  287802.93     -4.8823286e+09  316.06315      4219.6143      3117850.6    
       700  -4.8826271e+09  285326.55     -4.8823418e+09  313.34361      4183.307       3117850.6    
       800  -4.8826376e+09  283689.68     -4.8823539e+09  311.546        4159.308       3117850.6    
       900  -4.882645e+09   280953.52     -4.882364e+09   308.54118      4119.192       3117850.6    
      1000  -4.8826521e+09  280237.87     -4.8823719e+09  307.75525      4108.6994      3117850.6    
Loop time of 52.9943 on 8 procs for 1000 steps with 305484 atoms

Performance: 0.815 ns/day, 29.441 hours/ns, 18.870 timesteps/s
78.3% CPU use with 8 MPI tasks x 1 OpenMP threads

MPI task timing breakdown:
Section |  min time  |  avg time  |  max time  |%varavg| %total
---------------------------------------------------------------
Pair    | 37.013     | 37.136     | 37.195     |   0.9 | 70.08
Neigh   | 9.728      | 9.7958     | 9.9052     |   1.7 | 18.48
Comm    | 0.73401    | 0.84201    | 0.88623    |   4.7 |  1.59
Output  | 0.488      | 0.48993    | 0.49089    |   0.1 |  0.92
Modify  | 4.5974     | 4.6244     | 4.7443     |   2.2 |  8.73
Other   |            | 0.1057     |            |       |  0.20

Nlocal:        38185.5 ave       38399 max       37985 min
Histogram: 1 0 1 1 2 1 0 1 0 1
Nghost:        26916.1 ave       27062 max       26794 min
Histogram: 1 1 1 2 0 0 1 0 1 1
Neighs:              0 ave           0 max           0 min
Histogram: 8 0 0 0 0 0 0 0 0 0
FullNghs:  5.57862e+06 ave 5.63952e+06 max  5.5249e+06 min
Histogram: 1 0 1 1 2 1 1 0 0 1

Total # of neighbors = 44628926
Ave neighs/atom = 146.09252
Neighbor list builds = 29
Dangerous builds = 0

# write final state of simulation
# write_data    water.final
Total wall time: 0:01:29
