LAMMPS (3 Aug 2022)
KOKKOS mode is enabled (src/KOKKOS/kokkos.cpp:106)
  will use up to 8 GPU(s) per node
  using 1 OpenMP thread(s) per MPI task
Loaded 1 plugins from /blue/roitberg/apps/lammps-ani/build/
package kokkos
package kokkos gpu/aware on
# variables
variable       lammps_ani_root getenv LAMMPS_ANI_ROOT
# kokkos needs newton_pair on for reverse communication between gpus
variable       newton_pair     index  off
variable       num_models      index  1
variable       datafile        index  20k/water.data

# Intialization
units          real
atom_style     atomic

neighbor       2.0 bin
# check yes = only build if at least one atom has moved half the skin distance or more
neigh_modify   every 10 delay 0 check yes
newton         ${newton_pair} off
newton         on off

# Atom Definition
read_data      ${datafile}
read_data      300k/water.data
Reading data file ...
  triclinic box = (0 0 0) to (146.208 146.041 146.019) with tilt (0 0 0)
  2 by 2 by 2 MPI processor grid
  reading atoms ...
  305484 atoms
  read_data CPU = 1.476 seconds
# replicate      3 3 3
change_box     all boundary p p p
Changing box ...

# pair_style ani 5.1 model_file device num_models ani_aev ani_neighbor
# 0. model_file               = path to the model file
# 1. device                   = cuda/cpu
# 2. num_models (Optional)    = number of models to use, default as -1 to use all models
# 3. ani_aev (Optional)       = cuaev/pyaev, default as cuaev
# 4. ani_neighbor (Optional)  = full/half, default as full nbrlist
# 5. ani_precision (Optional) = single/double, default as single
pair_style     ani 5.1 ${lammps_ani_root}/tests/ani2x.pt cuda ${num_models} cuaev full single
pair_style     ani 5.1 /blue/roitberg/apps/lammps-ani/tests/ani2x.pt cuda ${num_models} cuaev full single
pair_style     ani 5.1 /blue/roitberg/apps/lammps-ani/tests/ani2x.pt cuda 8 cuaev full single
pair_coeff     * *

# Settings: temperature at 300 K, timestep (0.5 fs)
velocity       all create 300.0 12345 rot yes mom yes dist gaussian
fix            1 all langevin 300.0 300.0 100.0 12345
fix            2 all nve
timestep       0.5

# Output: dump atom positions every 0.5 ps and log info every 0.5 ps
dump           1 all xyz 100 water.xyz
dump_modify    1 element H C N O F S Cl
thermo_style   custom step pe ke etotal temp press vol
thermo         100

# Run the simulation: first run (5 ps)
run            1000
Generated 0 of 21 mixed pair_coeff terms from geometric mixing rule
Neighbor list info ...
  update: every = 10 steps, delay = 0 steps, check = yes
  max neighbors/atom: 2000, page size: 100000
  master list distance cutoff = 7.1
  ghost atom cutoff = 7.1
  binsize = 7.1, bins = 21 21 21
  1 neighbor lists, perpetual/occasional/extra = 1 0 0
  (1) pair ani/kk, perpetual
      attributes: full, newton on, kokkos_device
      pair build: full/bin/kk/device
      stencil: full/bin/3d
      bin: kk/device
Per MPI rank memory allocation (min/avg/max) = 15.84 | 15.9 | 15.95 Mbytes
   Step         PotEng         KinEng         TotEng          Temp          Press          Volume    
         0  -4.8824803e+09  273176.04     -4.8822071e+09  300            4005.1626      3117850.6    
       100  -4.8825144e+09  291782.41     -4.8822226e+09  320.43339      4277.9594      3117850.6    
       200  -4.8825465e+09  298972.99     -4.8822475e+09  328.33003      4383.3838      3117850.6    
       300  -4.8825695e+09  297289.5      -4.8822722e+09  326.48123      4358.7014      3117850.6    
       400  -4.8825879e+09  293140.19     -4.8822948e+09  321.92449      4297.8665      3117850.6    
       500  -4.882603e+09   290343.06     -4.8823127e+09  318.85271      4256.8564      3117850.6    
       600  -4.8826163e+09  287874.1      -4.8823284e+09  316.14131      4220.6578      3117850.6    
       700  -4.8826275e+09  284996.32     -4.8823425e+09  312.98095      4178.4653      3117850.6    
       800  -4.8826372e+09  284159.79     -4.8823531e+09  312.06228      4166.2006      3117850.6    
       900  -4.882645e+09   282223.83     -4.8823628e+09  309.93622      4137.8165      3117850.6    
      1000  -4.8826513e+09  280358.09     -4.882371e+09   307.88728      4110.462       3117850.6    
Loop time of 35.879 on 8 procs for 1000 steps with 305484 atoms

Performance: 1.204 ns/day, 19.933 hours/ns, 27.871 timesteps/s
66.8% CPU use with 8 MPI tasks x 1 OpenMP threads

MPI task timing breakdown:
Section |  min time  |  avg time  |  max time  |%varavg| %total
---------------------------------------------------------------
Pair    | 34.052     | 34.129     | 34.271     |   1.1 | 95.12
Neigh   | 0.02886    | 0.035365   | 0.051538   |   3.7 |  0.10
Comm    | 0.92369    | 1.0677     | 1.1258     |   6.2 |  2.98
Output  | 0.50027    | 0.50394    | 0.50801    |   0.4 |  1.40
Modify  | 0.083748   | 0.090688   | 0.096882   |   1.7 |  0.25
Other   |            | 0.05261    |            |       |  0.15

Nlocal:        38185.5 ave       38431 max       37983 min
Histogram: 1 0 1 2 2 0 0 1 0 1
Nghost:        26910.2 ave       27018 max       26840 min
Histogram: 1 2 0 2 1 0 0 1 0 1
Neighs:              0 ave           0 max           0 min
Histogram: 8 0 0 0 0 0 0 0 0 0
FullNghs:  5.57932e+06 ave 5.64566e+06 max 5.52252e+06 min
Histogram: 1 0 0 2 3 0 1 0 0 1

Total # of neighbors = 44634578
Ave neighs/atom = 146.11102
Neighbor list builds = 28
Dangerous builds = 0

# write final state of simulation
# write_data    water.final
Total wall time: 0:00:42
