LAMMPS (3 Aug 2022)
OMP_NUM_THREADS environment is not set. Defaulting to 1 thread. (src/comm.cpp:98)
  using 1 OpenMP thread(s) per MPI task
Loaded 1 plugins from /blue/roitberg/apps/lammps-ani/build/
# variables
variable       lammps_ani_root getenv LAMMPS_ANI_ROOT
# kokkos needs newton_pair on for reverse communication between gpus
variable       newton_pair     index  off
variable       num_models      index  1
variable       datafile        index  20k/water.data

# Intialization
units          real
atom_style     atomic

neighbor       2.0 bin
# check yes = only build if at least one atom has moved half the skin distance or more
neigh_modify   every 10 delay 0 check yes
newton         ${newton_pair} off
newton         off off

# Atom Definition
read_data      ${datafile}
read_data      300k/water.data
Reading data file ...
  triclinic box = (0 0 0) to (146.208 146.041 146.019) with tilt (0 0 0)
  1 by 1 by 1 MPI processor grid
  reading atoms ...
  305484 atoms
  read_data CPU = 1.499 seconds
# replicate      3 3 3
change_box     all boundary p p p
Changing box ...

# pair_style ani 5.1 model_file device num_models ani_aev ani_neighbor
# 0. model_file               = path to the model file
# 1. device                   = cuda/cpu
# 2. num_models (Optional)    = number of models to use, default as -1 to use all models
# 3. ani_aev (Optional)       = cuaev/pyaev, default as cuaev
# 4. ani_neighbor (Optional)  = full/half, default as full nbrlist
# 5. ani_precision (Optional) = single/double, default as single
pair_style     ani 5.1 ${lammps_ani_root}/tests/ani2x.pt cuda ${num_models} cuaev full single
pair_style     ani 5.1 /blue/roitberg/apps/lammps-ani/tests/ani2x.pt cuda ${num_models} cuaev full single
pair_style     ani 5.1 /blue/roitberg/apps/lammps-ani/tests/ani2x.pt cuda 8 cuaev full single
pair_coeff     * *

# Settings: temperature at 300 K, timestep (0.5 fs)
velocity       all create 300.0 12345 rot yes mom yes dist gaussian
fix            1 all langevin 300.0 300.0 100.0 12345
fix            2 all nve
timestep       0.5

# Output: dump atom positions every 0.5 ps and log info every 0.5 ps
dump           1 all xyz 100 water.xyz
dump_modify    1 element H C N O F S Cl
thermo_style   custom step pe ke etotal temp press vol
thermo         100

# Run the simulation: first run (5 ps)
run            1000
Generated 0 of 21 mixed pair_coeff terms from geometric mixing rule
Neighbor list info ...
  update: every = 10 steps, delay = 0 steps, check = yes
  max neighbors/atom: 2000, page size: 100000
  master list distance cutoff = 7.1
  ghost atom cutoff = 7.1
  binsize = 3.55, bins = 42 42 42
  1 neighbor lists, perpetual/occasional/extra = 1 0 0
  (1) pair ani, perpetual
      attributes: full, newton off
      pair build: full/bin/atomonly
      stencil: full/bin/3d
      bin: standard
Per MPI rank memory allocation (min/avg/max) = 276.9 | 276.9 | 276.9 Mbytes
   Step         PotEng         KinEng         TotEng          Temp          Press          Volume    
         0  -4.8824796e+09  273176.04     -4.8822064e+09  300            4005.1626      3117850.6    
       100  -4.8825139e+09  291558.45     -4.8822224e+09  320.18743      4274.6758      3117850.6    
       200  -4.8825452e+09  298327.54     -4.8822468e+09  327.6212       4373.9206      3117850.6    
       300  -4.8825692e+09  297175.53     -4.882272e+09   326.35607      4357.0304      3117850.6    
       400  -4.8825876e+09  293220.65     -4.8822944e+09  322.01285      4299.0461      3117850.6    
       500  -4.8826035e+09  290690.94     -4.8823128e+09  319.23474      4261.9568      3117850.6    
       600  -4.8826158e+09  287691.74     -4.8823281e+09  315.94104      4217.9841      3117850.6    
       700  -4.8826271e+09  284699.99     -4.8823424e+09  312.65552      4174.1206      3117850.6    
       800  -4.8826363e+09  283395.26     -4.8823529e+09  311.22268      4154.9914      3117850.6    
       900  -4.882644e+09   282406.73     -4.8823616e+09  310.13708      4140.4981      3117850.6    
      1000  -4.8826511e+09  281351.48     -4.8823698e+09  308.97821      4125.0265      3117850.6    
Loop time of 419.574 on 1 procs for 1000 steps with 305484 atoms

Performance: 0.103 ns/day, 233.097 hours/ns, 2.383 timesteps/s
77.7% CPU use with 1 MPI tasks x 1 OpenMP threads

MPI task timing breakdown:
Section |  min time  |  avg time  |  max time  |%varavg| %total
---------------------------------------------------------------
Pair    | 277.09     | 277.09     | 277.09     |   0.0 | 66.04
Neigh   | 99.199     | 99.199     | 99.199     |   0.0 | 23.64
Comm    | 2.7924     | 2.7924     | 2.7924     |   0.0 |  0.67
Output  | 2.871      | 2.871      | 2.871      |   0.0 |  0.68
Modify  | 36.772     | 36.772     | 36.772     |   0.0 |  8.76
Other   |            | 0.8471     |            |       |  0.20

Nlocal:         305484 ave      305484 max      305484 min
Histogram: 1 0 0 0 0 0 0 0 0 0
Nghost:          98292 ave       98292 max       98292 min
Histogram: 1 0 0 0 0 0 0 0 0 0
Neighs:              0 ave           0 max           0 min
Histogram: 1 0 0 0 0 0 0 0 0 0
FullNghs:  4.46275e+07 ave 4.46275e+07 max 4.46275e+07 min
Histogram: 1 0 0 0 0 0 0 0 0 0

Total # of neighbors = 44627504
Ave neighs/atom = 146.08786
Neighbor list builds = 28
Dangerous builds = 0

# write final state of simulation
# write_data    water.final
Total wall time: 0:07:09
