# LAMMPS data
12255 atoms
7 atom types
-25.0 25.0  xlo xhi
-25.0 25.0  ylo yhi
-25.0 25.0  zlo zhi
0.0 0.0 0.0 xy xz yz

Masses

1  1.008        # H
2 12.010700     # C
3 14.0067       # N
4 15.999        # O
5 32.06         # S
6 18.998403163  # F
7 35.45         # Cl

Atoms

1	4	-20.875	-11.321	-11.239	# O
2	1	-20.975	-10.572	-10.652	# H
3	1	-20.33	-11.938	-10.751	# H
4	4	-5.594	-7.992	-21.538	# O
5	1	-5.689	-8.87	-21.168	# H
6	1	-6.359	-7.887	-22.103	# H
7	4	-3.708	-19.733	4.931	# O
8	1	-4.455	-20.042	5.444	# H
9	1	-4.076	-19.07	4.347	# H
10	4	-18.032	2.278	-20.867	# O
11	1	-18.737	1.721	-20.537	# H
12	1	-18.007	3.017	-20.259	# H
13	4	-3.871	-23.847	-3.265	# O
14	1	-4.031	-24.696	-3.677	# H
15	1	-3.361	-23.358	-3.911	# H
16	4	-18.285	-6.286	-3.53	# O
17	1	-18.612	-5.631	-2.912	# H
18	1	-17.343	-6.123	-3.575	# H
19	4	-13.111	-13.028	-12.919	# O
20	1	-13.706	-13.751	-12.72	# H
21	1	-12.239	-13.42	-12.891	# H
22	4	-19.117	-18.027	-16.299	# O
23	1	-19.582	-18.824	-16.552	# H
24	1	-19.093	-17.5	-17.098	# H
25	4	-9.891	-7.168	-9.395	# O
26	1	-10.702	-7.35	-9.87	# H
27	1	-9.206	-7.224	-10.062	# H
28	4	-24.36	-10.923	-16.464	# O
29	1	-25.183	-10.603	-16.836	# H
30	1	-24.087	-11.624	-17.055	# H
31	4	-6.14	-6.383	-15.716	# O
32	1	-6.527	-6.824	-14.959	# H
33	1	-6.847	-5.84	-16.064	# H
34	4	-15.932	-16.314	-7.174	# O
35	1	-16.538	-16.747	-6.572	# H
36	1	-15.602	-17.02	-7.73	# H
37	4	-13.77	-13.648	-19.296	# O
38	1	-14.354	-13.198	-18.686	# H
39	1	-13.317	-14.299	-18.76	# H
40	4	-7.529	-9.769	-7.092	# O
41	1	-7.048	-9.852	-6.268	# H
42	1	-6.864	-9.888	-7.77	# H
43	4	-2.916	-15.492	-18.664	# O
44	1	-3.005	-15.258	-19.588	# H
45	1	-2.257	-14.885	-18.326	# H
46	4	-19.381	-11.31	-16.05	# O
47	1	-19.231	-11.279	-15.105	# H
48	1	-20.242	-10.91	-16.17	# H
49	4	4.312	-6.036	-9.798	# O
50	1	4.652	-5.463	-9.11	# H
51	1	4.902	-5.898	-10.539	# H
52	4	-22.463	-17.833	3.847	# O
53	1	-21.722	-17.421	4.293	# H
54	1	-22.133	-18.036	2.972	# H
55	4	-12.065	0.556	-10.802	# O
56	1	-11.132	0.364	-10.891	# H
57	1	-12.472	0.125	-11.553	# H
58	4	3.041	-19.433	-19.451	# O
59	1	2.101	-19.313	-19.587	# H
60	1	3.22	-20.317	-19.77	# H
61	4	-6.633	-3.637	-24.319	# O
62	1	-7.287	-2.947	-24.433	# H
63	1	-6.717	-4.179	-25.103	# H
64	4	-14.311	-9.012	-18.335	# O
65	1	-13.862	-8.171	-18.251	# H
66	1	-15.119	-8.903	-17.833	# H
67	4	-6.564	-20.139	0.046	# O
68	1	-6.881	-20.482	0.881	# H
69	1	-6.624	-20.88	-0.557	# H
70	4	3.804	-15.057	-9.227	# O
71	1	2.865	-14.996	-9.401	# H
72	1	3.861	-15.4	-8.335	# H
73	4	-22.607	-4.226	-21.154	# O
74	1	-21.814	-3.69	-21.153	# H
75	1	-22.323	-5.076	-20.818	# H
76	4	-7.018	-10.54	-14.335	# O
77	1	-7.744	-10.632	-14.952	# H
78	1	-7.292	-11.04	-13.566	# H
79	4	-15.341	-0.993	5.186	# O
80	1	-15.948	-0.402	4.741	# H
81	1	-14.473	-0.649	4.975	# H
82	4	-11.466	-10.318	-24.465	# O
83	1	-12.095	-11.019	-24.294	# H
84	1	-11.918	-9.733	-25.073	# H
85	4	-8.063	-2.968	-11.633	# O
86	1	-7.718	-2.092	-11.802	# H
87	1	-7.333	-3.556	-11.827	# H
88	4	-20.564	3.79	1.234	# O
89	1	-20.098	3.113	0.743	# H
90	1	-21.212	4.131	0.617	# H
91	4	-13.236	-1.878	-16.457	# O
92	1	-13.306	-1.114	-17.028	# H
93	1	-12.92	-2.578	-17.029	# H
94	4	-10.465	1.053	-23.109	# O
95	1	-9.841	1.047	-23.835	# H
96	1	-10.024	0.568	-22.411	# H
97	4	-23.407	-17.128	-19.862	# O
98	1	-23.083	-17.916	-20.297	# H
99	1	-22.621	-16.702	-19.519	# H
100	4	-20.618	-23.301	-8.362	# O
101	1	-21.549	-23.164	-8.536	# H
102	1	-20.228	-23.425	-9.227	# H
103	4	-8.018	-10.615	3.385	# O
104	1	-7.176	-11.013	3.606	# H
105	1	-7.855	-10.15	2.564	# H
106	4	-13.977	-22.815	-6.854	# O
107	1	-14.239	-21.894	-6.861	# H
108	1	-13.304	-22.868	-6.176	# H
109	4	-9.841	-24.316	-16.128	# O
110	1	-10.231	-23.568	-16.58	# H
111	1	-9.906	-25.036	-16.755	# H
112	4	-9.577	-10.961	-11.905	# O
113	1	-10.186	-11.015	-11.168	# H
114	1	-10.128	-10.74	-12.656	# H
115	4	-18.121	1.93	-15.242	# O
116	1	-17.904	2.813	-14.944	# H
117	1	-17.979	1.954	-16.188	# H
118	4	-12.719	-15.92	1.96	# O
119	1	-13.12	-15.169	1.524	# H
120	1	-12.01	-15.544	2.482	# H
121	4	3.539	-9.425	-17.357	# O
122	1	3.453	-8.847	-18.115	# H
123	1	3.192	-8.915	-16.625	# H
124	4	-16.642	-18.612	-21.498	# O
125	1	-15.978	-18.09	-21.948	# H
126	1	-17.008	-18.019	-20.841	# H
127	4	-0.611	-15.585	-7.635	# O
128	1	-0.275	-16.478	-7.705	# H
129	1	-0.705	-15.437	-6.694	# H
130	4	-17.202	-11.226	-17.908	# O
131	1	-17.837	-11.487	-17.241	# H
132	1	-16.631	-11.988	-18.007	# H
133	4	-15.91	-22.189	-12.699	# O
134	1	-15.73	-21.733	-13.521	# H
135	1	-15.223	-21.89	-12.102	# H
136	4	-9.145	-11.003	-15.989	# O
137	1	-9.831	-10.43	-16.331	# H
138	1	-9.594	-11.825	-15.792	# H
139	4	-17.347	-7.695	-12.498	# O
140	1	-17.863	-7.102	-11.951	# H
141	1	-17.382	-8.535	-12.04	# H
142	4	-2.541	-21.391	-22.336	# O
143	1	-3.314	-21.421	-22.9	# H
144	1	-2.198	-20.504	-22.447	# H
145	4	-3.767	-4.495	-10.053	# O
146	1	-4.12	-3.958	-9.343	# H
147	1	-3.048	-3.975	-10.413	# H
148	4	-17.788	-16.793	4.852	# O
149	1	-17.636	-16.254	5.628	# H
150	1	-16.931	-16.855	4.431	# H
151	4	-14.586	0.888	1.795	# O
152	1	-14.594	1.287	0.925	# H
153	1	-15.38	1.217	2.217	# H
154	4	-13.804	1.301	-23.442	# O
155	1	-13.745	2.251	-23.34	# H
156	1	-13.357	0.949	-22.673	# H
157	4	-20.309	-21.385	-12.653	# O
158	1	-21.162	-21.046	-12.927	# H
159	1	-19.765	-20.605	-12.546	# H
160	4	-11.849	-12.677	2.058	# O
161	1	-11.422	-12.949	1.245	# H
162	1	-11.134	-12.592	2.688	# H
163	4	-13.63	-4.179	-12.02	# O
164	1	-13.651	-3.41	-12.591	# H
165	1	-12.709	-4.438	-12.001	# H
166	4	-9.425	-20.494	-1.792	# O
167	1	-8.873	-19.853	-2.24	# H
168	1	-9.729	-21.077	-2.487	# H
169	4	-10.463	-5.47	-17.193	# O
170	1	-10.975	-6.035	-16.615	# H
171	1	-11.089	-4.816	-17.505	# H
172	4	-20.079	-10.916	-18.946	# O
173	1	-19.753	-11.715	-18.531	# H
174	1	-20.6	-10.488	-18.267	# H
175	4	-13.054	-20.065	-6.569	# O
176	1	-12.185	-19.679	-6.676	# H
177	1	-13.23	-20.004	-5.63	# H
178	4	-21.996	-1.275	-20.007	# O
179	1	-22.436	-1.865	-19.395	# H
180	1	-21.205	-1.746	-20.269	# H
181	4	-15.605	-18.998	-11.44	# O
182	1	-16.528	-19.175	-11.259	# H
183	1	-15.451	-19.386	-12.301	# H
184	4	-18.537	-5.949	-10.789	# O
185	1	-19.199	-6.04	-10.104	# H
186	1	-17.906	-5.325	-10.431	# H
187	4	-12.269	-20.254	-11.965	# O
188	1	-11.44	-20.72	-12.077	# H
189	1	-12.626	-20.595	-11.144	# H
190	4	-14.077	-9.481	-13.099	# O
191	1	-14.925	-9.888	-13.275	# H
192	1	-14.267	-8.544	-13.044	# H
193	4	-13.718	-16.344	-15.65	# O
194	1	-13.655	-17.053	-15.009	# H
195	1	-14.323	-15.717	-15.256	# H
196	4	-17.619	3.816	-23.32	# O
197	1	-18.315	3.291	-23.715	# H
198	1	-17.709	3.664	-22.379	# H
199	4	-9.306	-6.389	-20.451	# O
200	1	-9.129	-6.393	-21.391	# H
201	1	-8.748	-7.083	-20.099	# H
202	4	-18.989	-24.116	-20.537	# O
203	1	-18.14	-24.525	-20.706	# H
204	1	-18.835	-23.181	-20.669	# H
205	4	-15.584	-16.275	-18.436	# O
206	1	-15.095	-16.541	-17.657	# H
207	1	-14.977	-15.714	-18.919	# H
208	4	-14.028	-6.6	-9.034	# O
209	1	-13.393	-7.113	-9.534	# H
210	1	-14.857	-7.063	-9.151	# H
211	4	-15.923	-14.915	-15.021	# O
212	1	-15.687	-14.675	-14.125	# H
213	1	-16.856	-15.126	-14.975	# H
214	4	-16.333	-1.911	-19.273	# O
215	1	-15.832	-2.293	-18.552	# H
216	1	-15.691	-1.786	-19.972	# H
217	4	-12.805	-21.969	-18.351	# O
218	1	-12.413	-21.489	-17.621	# H
219	1	-12.17	-22.656	-18.556	# H
220	4	-22.232	-14.675	-9.061	# O
221	1	-22.798	-14.203	-9.672	# H
222	1	-22.838	-15.128	-8.474	# H
223	4	-21.203	-19.067	-6.454	# O
224	1	-20.46	-19.602	-6.732	# H
225	1	-21.954	-19.442	-6.915	# H
226	4	-17.731	-19.509	-14.23	# O
227	1	-18.346	-18.931	-14.682	# H
228	1	-17.355	-20.05	-14.924	# H
229	4	-20.506	-20.681	-16.389	# O
230	1	-21.177	-21.319	-16.149	# H
231	1	-20.244	-20.929	-17.275	# H
232	4	-6.79	-13.799	-13.908	# O
233	1	-6.206	-13.838	-14.665	# H
234	1	-7.667	-13.902	-14.275	# H
235	4	-12.38	-22.254	-22.354	# O
236	1	-12.748	-21.884	-23.156	# H
237	1	-11.721	-21.617	-22.076	# H
238	4	-1.317	-5.745	0.623	# O
239	1	-2.051	-6.05	1.155	# H
240	1	-0.921	-5.043	1.14	# H
241	4	-21.0	-14.964	-5.764	# O
242	1	-20.29	-15.507	-6.108	# H
243	1	-20.86	-14.105	-6.163	# H
244	4	-11.391	-15.303	-21.832	# O
245	1	-10.914	-16.05	-21.472	# H
246	1	-10.775	-14.572	-21.769	# H
247	4	-14.315	-13.711	-24.525	# O
248	1	-14.033	-13.031	-25.137	# H
249	1	-14.402	-13.257	-23.686	# H
250	4	-18.798	3.79	-17.608	# O
251	1	-19.373	4.326	-17.063	# H
252	1	-18.057	4.361	-17.811	# H
253	4	-9.357	-18.384	-16.013	# O
254	1	-9.376	-18.384	-15.056	# H
255	1	-8.455	-18.15	-16.234	# H
256	4	-8.833	-4.668	-15.159	# O
257	1	-9.099	-4.892	-16.05	# H
258	1	-9.201	-5.365	-14.616	# H
259	4	-6.159	-5.307	-11.311	# O
260	1	-5.343	-5.188	-10.826	# H
261	1	-5.953	-5.025	-12.202	# H
262	4	-17.639	-10.048	-10.894	# O
263	1	-18.255	-10.335	-10.22	# H
264	1	-17.284	-10.861	-11.255	# H
265	4	-2.837	-13.015	-16.306	# O
266	1	-2.793	-12.064	-16.398	# H
267	1	-2.178	-13.347	-16.916	# H
268	4	-23.42	-23.159	-12.621	# O
269	1	-23.326	-23.598	-13.466	# H
270	1	-23.215	-22.242	-12.802	# H
271	4	-15.198	-11.433	-4.298	# O
272	1	-15.084	-12.383	-4.31	# H
273	1	-14.771	-11.13	-5.1	# H
274	4	-19.118	-13.862	3.353	# O
275	1	-18.311	-13.787	3.861	# H
276	1	-19.8	-14.02	4.006	# H
277	4	-12.365	-11.85	-10.666	# O
278	1	-12.733	-11.658	-11.529	# H
279	1	-12.014	-12.737	-10.747	# H
280	4	-14.853	-16.452	-22.054	# O
281	1	-14.196	-16.391	-22.747	# H
282	1	-14.402	-16.143	-21.268	# H
283	4	-20.289	-9.576	-1.872	# O
284	1	-20.432	-9.096	-2.688	# H
285	1	-20.025	-8.905	-1.243	# H
286	4	-22.081	-8.541	-10.637	# O
287	1	-21.468	-7.891	-10.295	# H
288	1	-22.751	-8.621	-9.958	# H
289	4	-15.023	-23.375	-15.834	# O
290	1	-14.11	-23.212	-16.071	# H
291	1	-14.98	-23.741	-14.951	# H
292	4	-12.48	-15.604	-17.956	# O
293	1	-12.072	-16.04	-18.705	# H
294	1	-12.378	-16.223	-17.233	# H
295	4	-4.314	-10.441	-14.142	# O
296	1	-4.526	-10.024	-13.307	# H
297	1	-5.165	-10.64	-14.533	# H
298	4	-6.745	-14.183	2.597	# O
299	1	-7.056	-14.123	1.694	# H
300	1	-5.797	-14.069	2.533	# H
301	4	-19.93	-12.798	-6.855	# O
302	1	-19.164	-13.28	-7.167	# H
303	1	-20.307	-12.41	-7.645	# H
304	4	-20.526	-18.005	-3.905	# O
305	1	-20.62	-18.279	-4.818	# H
306	1	-20.536	-17.049	-3.939	# H
307	4	-8.197	-16.159	-3.087	# O
308	1	-8.87	-16.733	-3.453	# H
309	1	-7.612	-16.748	-2.611	# H
310	4	-7.662	-23.681	-7.628	# O
311	1	-7.85	-22.831	-7.23	# H
312	1	-8.404	-24.232	-7.38	# H
313	4	-20.639	-0.347	-11.867	# O
314	1	-19.814	0.085	-12.09	# H
315	1	-21.122	0.304	-11.359	# H
316	4	-18.91	-10.138	-13.557	# O
317	1	-19.529	-9.619	-14.07	# H
318	1	-19.0	-9.804	-12.664	# H
319	4	-11.555	-8.823	-16.496	# O
320	1	-11.617	-9.055	-17.422	# H
321	1	-12.216	-8.142	-16.374	# H
322	4	-16.494	-20.858	-16.388	# O
323	1	-16.133	-20.542	-17.216	# H
324	1	-16.015	-21.668	-16.211	# H
325	4	-15.774	4.962	-5.446	# O
326	1	-15.875	4.323	-6.151	# H
327	1	-15.223	5.649	-5.822	# H
328	4	-19.098	1.177	-9.216	# O
329	1	-20.019	1.405	-9.341	# H
330	1	-18.74	1.131	-10.102	# H
331	4	-20.824	-16.956	-18.442	# O
332	1	-21.396	-16.665	-17.732	# H
333	1	-20.673	-16.17	-18.967	# H
334	4	-4.065	-16.874	-7.147	# O
335	1	-4.506	-16.556	-6.359	# H
336	1	-3.7	-16.087	-7.552	# H
337	4	-21.449	4.199	-10.612	# O
338	1	-21.543	3.735	-11.444	# H
339	1	-20.918	4.967	-10.824	# H
340	4	-17.35	-9.407	-24.439	# O
341	1	-16.858	-10.09	-23.984	# H
342	1	-16.846	-8.607	-24.289	# H
343	4	-15.224	-22.112	-19.359	# O
344	1	-14.375	-22.261	-18.941	# H
345	1	-15.196	-22.641	-20.156	# H
346	4	-15.97	-8.597	-9.39	# O
347	1	-16.267	-8.986	-8.568	# H
348	1	-16.593	-8.915	-10.044	# H
349	4	-0.051	-14.287	-2.566	# O
350	1	-0.59	-14.856	-2.017	# H
351	1	-0.648	-13.597	-2.857	# H
352	4	-12.004	-18.917	-4.095	# O
353	1	-11.729	-18.003	-4.166	# H
354	1	-11.541	-19.247	-3.325	# H
355	4	-11.004	-14.977	4.096	# O
356	1	-10.277	-15.537	4.368	# H
357	1	-10.642	-14.442	3.389	# H
358	4	-9.989	-17.879	3.048	# O
359	1	-9.764	-17.954	3.975	# H
360	1	-10.846	-18.299	2.974	# H
361	4	-5.22	-7.975	-18.207	# O
362	1	-5.37	-7.2	-18.747	# H
363	1	-5.866	-7.907	-17.504	# H
364	4	-0.069	-9.676	-15.413	# O
365	1	0.32	-10.409	-14.935	# H
366	1	0.332	-9.715	-16.281	# H
367	4	-19.254	-13.446	-12.714	# O
368	1	-19.486	-13.227	-11.811	# H
369	1	-18.411	-13.016	-12.855	# H
370	4	4.075	-22.628	-11.42	# O
371	1	4.194	-22.273	-10.539	# H
372	1	4.964	-22.769	-11.745	# H
373	4	-9.649	-17.134	-11.43	# O
374	1	-9.49	-17.854	-12.04	# H
375	1	-8.776	-16.868	-11.141	# H
376	4	-11.054	2.751	-13.795	# O
377	1	-11.384	2.641	-12.903	# H
378	1	-11.783	3.147	-14.273	# H
379	4	-23.796	-7.184	4.449	# O
380	1	-23.091	-6.898	5.029	# H
381	1	-23.349	-7.626	3.728	# H
382	4	-22.52	-11.563	-13.483	# O
383	1	-22.029	-11.678	-12.669	# H
384	1	-22.603	-10.614	-13.58	# H
385	4	-20.915	-14.024	-14.809	# O
386	1	-21.638	-13.413	-14.672	# H
387	1	-20.309	-13.844	-14.089	# H
388	4	-22.526	-22.727	-15.514	# O
389	1	-23.075	-21.989	-15.781	# H
390	1	-23.114	-23.482	-15.533	# H
391	4	-21.976	-8.906	-13.404	# O
392	1	-22.021	-8.836	-12.45	# H
393	1	-21.887	-8.002	-13.707	# H
394	4	-12.422	-10.805	-8.259	# O
395	1	-12.308	-11.251	-9.099	# H
396	1	-11.603	-10.327	-8.128	# H
397	4	-9.285	-12.933	3.025	# O
398	1	-8.448	-13.393	3.098	# H
399	1	-9.083	-12.029	3.267	# H
400	4	-15.501	-9.065	-21.126	# O
401	1	-15.23	-9.197	-20.217	# H
402	1	-15.09	-8.239	-21.381	# H
403	4	-16.951	-6.712	-7.73	# O
404	1	-17.183	-7.419	-7.128	# H
405	1	-16.754	-7.155	-8.555	# H
406	4	-16.976	-23.945	-10.937	# O
407	1	-16.809	-23.192	-11.504	# H
408	1	-16.411	-23.802	-10.176	# H
409	4	-12.666	-1.557	-20.968	# O
410	1	-13.425	-2.073	-21.239	# H
411	1	-11.921	-1.99	-21.384	# H
412	4	-21.14	3.271	-18.89	# O
413	1	-21.463	4.126	-19.175	# H
414	1	-20.256	3.443	-18.568	# H
415	4	-22.873	-2.865	-7.14	# O
416	1	-22.154	-3.187	-7.682	# H
417	1	-22.689	-1.933	-7.025	# H
418	4	-6.005	-16.649	-19.031	# O
419	1	-5.087	-16.618	-18.76	# H
420	1	-6.151	-17.561	-19.28	# H
421	4	-19.193	-8.918	-20.688	# O
422	1	-18.401	-9.354	-21.002	# H
423	1	-19.378	-9.335	-19.846	# H
424	4	-9.361	-13.345	-21.277	# O
425	1	-8.541	-13.822	-21.154	# H
426	1	-9.532	-12.937	-20.427	# H
427	4	-11.375	-9.938	-13.744	# O
428	1	-12.16	-9.626	-13.294	# H
429	1	-11.495	-9.665	-14.653	# H
430	4	-18.261	-14.587	-8.088	# O
431	1	-17.325	-14.784	-8.126	# H
432	1	-18.665	-15.398	-7.779	# H
433	4	-15.894	-5.266	-2.9	# O
434	1	-15.129	-5.6	-3.37	# H
435	1	-15.649	-4.376	-2.645	# H
436	4	-16.108	-4.58	-23.401	# O
437	1	-16.713	-5.218	-23.023	# H
438	1	-16.224	-3.794	-22.867	# H
439	4	-11.552	-24.432	-19.875	# O
440	1	-10.735	-24.453	-19.378	# H
441	1	-11.278	-24.486	-20.791	# H
442	4	-16.865	-7.674	-15.316	# O
443	1	-16.884	-6.756	-15.589	# H
444	1	-16.999	-7.645	-14.369	# H
445	4	-13.135	-16.125	-24.182	# O
446	1	-13.523	-15.294	-24.454	# H
447	1	-12.191	-15.97	-24.208	# H
448	4	-10.941	-4.29	-5.135	# O
449	1	-11.814	-4.476	-4.791	# H
450	1	-10.882	-4.815	-5.934	# H
451	4	-16.214	-10.169	-14.488	# O
452	1	-17.097	-10.324	-14.151	# H
453	1	-16.266	-9.31	-14.908	# H
454	4	0.78	-9.419	-9.405	# O
455	1	1.599	-9.544	-9.884	# H
456	1	0.835	-10.032	-8.672	# H
457	4	-10.264	-19.966	-18.264	# O
458	1	-9.708	-20.742	-18.333	# H
459	1	-9.728	-19.327	-17.794	# H
460	4	-10.255	-6.622	3.842	# O
461	1	-9.972	-5.747	3.573	# H
462	1	-9.735	-6.813	4.622	# H
463	4	-10.194	-9.503	-8.139	# O
464	1	-10.083	-8.695	-8.64	# H
465	1	-9.323	-9.69	-7.789	# H
466	4	-17.268	-11.744	1.768	# O
467	1	-17.496	-12.261	2.541	# H
468	1	-16.57	-11.161	2.065	# H
469	4	-6.19	-6.351	4.542	# O
470	1	-5.822	-7.233	4.491	# H
471	1	-5.498	-5.782	4.205	# H
472	4	2.457	-12.515	-12.349	# O
473	1	1.972	-13.335	-12.262	# H
474	1	3.32	-12.779	-12.668	# H
475	4	-5.192	-14.043	-16.181	# O
476	1	-4.289	-13.734	-16.259	# H
477	1	-5.707	-13.407	-16.678	# H
478	4	-11.32	-12.956	-16.689	# O
479	1	-12.038	-12.549	-16.203	# H
480	1	-11.605	-13.859	-16.826	# H
481	4	-20.564	-25.026	-15.848	# O
482	1	-20.042	-24.667	-15.131	# H
483	1	-21.288	-24.408	-15.951	# H
484	4	-21.798	-9.709	-17.005	# O
485	1	-22.396	-9.582	-17.741	# H
486	1	-22.27	-10.289	-16.409	# H
487	4	-11.504	-14.748	-9.579	# O
488	1	-10.878	-14.034	-9.459	# H
489	1	-10.985	-15.461	-9.954	# H
490	4	3.806	-18.244	-9.883	# O
491	1	3.599	-18.656	-10.721	# H
492	1	2.982	-17.845	-9.602	# H
493	4	-18.645	-12.466	-4.198	# O
494	1	-19.232	-12.36	-4.947	# H
495	1	-18.188	-11.628	-4.131	# H
496	4	-22.802	-22.563	-9.98	# O
497	1	-23.01	-22.981	-10.816	# H
498	1	-22.237	-21.826	-10.215	# H
499	4	-4.642	-23.804	-10.606	# O
500	1	-3.751	-23.931	-10.932	# H
501	1	-4.668	-22.887	-10.331	# H
502	4	-12.043	-6.805	-20.289	# O
503	1	-12.17	-6.518	-19.385	# H
504	1	-11.11	-6.669	-20.455	# H
505	4	-13.788	-11.765	-15.369	# O
506	1	-13.503	-11.81	-14.457	# H
507	1	-14.527	-11.157	-15.36	# H
508	4	-19.707	-8.399	-23.756	# O
509	1	-18.798	-8.595	-23.527	# H
510	1	-19.901	-8.985	-24.487	# H
511	4	-19.035	-23.7	-14.161	# O
512	1	-18.287	-23.105	-14.117	# H
513	1	-19.794	-23.146	-13.977	# H
514	4	-10.959	-15.694	-14.968	# O
515	1	-11.91	-15.768	-15.05	# H
516	1	-10.619	-16.477	-15.402	# H
517	4	-11.155	-9.003	-5.085	# O
518	1	-11.613	-9.39	-5.831	# H
519	1	-10.843	-8.157	-5.409	# H
520	4	-7.07	-11.101	-10.86	# O
521	1	-8.023	-11.081	-10.78	# H
522	1	-6.751	-10.852	-9.992	# H
523	4	-7.032	-20.218	-24.666	# O
524	1	-7.944	-19.95	-24.55	# H
525	1	-6.798	-20.637	-23.837	# H
526	4	-18.914	-13.24	-21.874	# O
527	1	-19.734	-12.747	-21.911	# H
528	1	-18.276	-12.618	-21.525	# H
529	4	-4.211	-13.036	-7.399	# O
530	1	-3.665	-13.749	-7.73	# H
531	1	-4.085	-12.325	-8.028	# H
532	4	-8.9	-14.249	-15.418	# O
533	1	-9.689	-14.638	-15.041	# H
534	1	-8.663	-14.834	-16.137	# H
535	4	-13.116	-13.055	-21.86	# O
536	1	-13.4	-13.033	-20.947	# H
537	1	-12.712	-13.916	-21.966	# H
538	4	-14.393	-6.819	-12.682	# O
539	1	-15.325	-6.982	-12.539	# H
540	1	-14.312	-5.865	-12.677	# H
541	4	-8.194	-4.429	-9.031	# O
542	1	-7.455	-5.023	-9.162	# H
543	1	-8.276	-3.96	-9.862	# H
544	4	-18.614	-21.118	-18.722	# O
545	1	-18.172	-20.835	-17.922	# H
546	1	-18.219	-20.588	-19.415	# H
547	4	-7.174	-14.325	-0.286	# O
548	1	-7.945	-14.788	-0.614	# H
549	1	-6.437	-14.741	-0.732	# H
550	4	-4.003	-8.179	-23.514	# O
551	1	-3.646	-7.305	-23.673	# H
552	1	-4.591	-8.066	-22.768	# H
553	4	2.157	-11.909	-8.47	# O
554	1	2.505	-12.495	-7.798	# H
555	1	1.475	-12.421	-8.905	# H
556	4	3.486	-14.061	-15.359	# O
557	1	3.9	-13.821	-14.53	# H
558	1	3.906	-13.498	-16.009	# H
559	4	-10.097	1.573	-16.133	# O
560	1	-10.16	1.829	-15.212	# H
561	1	-10.149	0.617	-16.12	# H
562	4	-18.564	-15.755	-15.332	# O
563	1	-19.342	-15.2	-15.389	# H
564	1	-18.803	-16.553	-15.804	# H
565	4	-7.022	-14.8	-20.66	# O
566	1	-6.432	-14.056	-20.535	# H
567	1	-6.77	-15.423	-19.979	# H
568	4	-10.432	-13.664	-12.495	# O
569	1	-9.683	-13.074	-12.584	# H
570	1	-10.154	-14.471	-12.929	# H
571	4	-19.101	-5.647	-14.503	# O
572	1	-19.764	-5.402	-13.858	# H
573	1	-19.573	-6.183	-15.14	# H
574	4	-14.463	-20.159	-13.915	# O
575	1	-14.549	-19.488	-14.593	# H
576	1	-13.616	-19.981	-13.507	# H
577	4	-16.623	-1.532	-11.814	# O
578	1	-15.832	-1.062	-12.078	# H
579	1	-17.342	-0.998	-12.151	# H
580	4	-16.994	-11.195	-20.713	# O
581	1	-16.312	-10.581	-20.984	# H
582	1	-17.07	-11.068	-19.767	# H
583	4	-16.404	-4.988	-13.343	# O
584	1	-17.304	-5.313	-13.378	# H
585	1	-16.495	-4.041	-13.235	# H
586	4	-16.49	4.554	-20.28	# O
587	1	-15.736	4.82	-20.807	# H
588	1	-16.334	4.95	-19.423	# H
589	4	-20.958	2.26	-15.047	# O
590	1	-20.023	2.052	-15.045	# H
591	1	-20.996	3.191	-15.265	# H
592	4	-7.139	-19.199	-18.68	# O
593	1	-6.222	-19.384	-18.882	# H
594	1	-7.628	-19.589	-19.404	# H
595	4	-0.175	-17.566	-16.39	# O
596	1	-0.065	-18.265	-17.035	# H
597	1	0.503	-16.928	-16.61	# H
598	4	-15.346	-13.154	-17.124	# O
599	1	-14.592	-12.718	-16.727	# H
600	1	-15.718	-13.682	-16.418	# H
601	4	-7.155	-13.663	-3.927	# O
602	1	-7.418	-14.499	-3.543	# H
603	1	-7.972	-13.173	-4.02	# H
604	4	-8.589	-21.367	-5.952	# O
605	1	-7.886	-20.717	-5.955	# H
606	1	-8.799	-21.489	-5.026	# H
607	4	-13.351	-16.869	-1.393	# O
608	1	-13.076	-17.502	-0.729	# H
609	1	-13.065	-16.023	-1.049	# H
610	4	-6.657	-16.36	-7.984	# O
611	1	-6.801	-15.545	-7.503	# H
612	1	-5.741	-16.58	-7.815	# H
613	4	-17.172	-15.291	-23.098	# O
614	1	-16.297	-15.601	-22.866	# H
615	1	-17.626	-15.202	-22.26	# H
616	4	-17.529	-15.442	1.489	# O
617	1	-17.917	-14.845	2.129	# H
618	1	-17.127	-14.868	0.838	# H
619	4	-11.508	-16.636	-7.218	# O
620	1	-12.424	-16.523	-6.962	# H
621	1	-11.278	-15.816	-7.655	# H
622	4	2.137	-11.506	-18.424	# O
623	1	1.217	-11.272	-18.546	# H
624	1	2.535	-10.722	-18.046	# H
625	4	-19.604	-15.159	-3.456	# O
626	1	-20.508	-14.912	-3.262	# H
627	1	-19.114	-14.339	-3.401	# H
628	4	-9.297	-11.35	-3.491	# O
629	1	-10.067	-10.784	-3.547	# H
630	1	-9.251	-11.602	-2.569	# H
631	4	-19.62	-19.145	-20.46	# O
632	1	-19.058	-18.403	-20.683	# H
633	1	-19.869	-18.992	-19.548	# H
634	4	-3.496	-4.105	-3.337	# O
635	1	-3.466	-3.151	-3.411	# H
636	1	-3.779	-4.403	-4.201	# H
637	4	-8.797	-12.212	-0.673	# O
638	1	-8.044	-12.615	-0.241	# H
639	1	-9.488	-12.873	-0.617	# H
640	4	-4.688	-12.314	-3.48	# O
641	1	-5.43	-12.289	-2.877	# H
642	1	-4.962	-11.773	-4.221	# H
643	4	-1.409	-13.72	-21.659	# O
644	1	-2.301	-13.374	-21.677	# H
645	1	-0.884	-13.052	-22.1	# H
646	4	-17.116	1.032	-1.289	# O
647	1	-16.467	1.234	-1.963	# H
648	1	-17.923	0.865	-1.776	# H
649	4	-6.579	-10.225	-4.274	# O
650	1	-6.156	-9.804	-3.525	# H
651	1	-7.471	-10.404	-3.976	# H
652	4	-10.02	-9.831	-1.045	# O
653	1	-9.365	-9.277	-1.47	# H
654	1	-9.509	-10.498	-0.587	# H
655	4	-4.869	-7.582	-7.743	# O
656	1	-4.139	-6.979	-7.882	# H
657	1	-4.731	-7.927	-6.861	# H
658	4	-7.273	-15.981	-10.469	# O
659	1	-6.788	-15.156	-10.467	# H
660	1	-7.233	-16.285	-9.562	# H
661	4	-7.937	-20.705	-21.306	# O
662	1	-7.673	-21.568	-20.987	# H
663	1	-8.663	-20.883	-21.905	# H
664	4	-12.853	-11.946	-1.519	# O
665	1	-12.2	-11.839	-2.211	# H
666	1	-13.168	-11.059	-1.347	# H
667	4	-15.696	-20.247	-8.321	# O
668	1	-16.518	-20.23	-8.811	# H
669	1	-15.965	-20.286	-7.403	# H
670	4	-14.711	-15.109	-12.402	# O
671	1	-14.155	-15.881	-12.51	# H
672	1	-14.813	-15.018	-11.454	# H
673	4	-13.476	-14.341	-0.367	# O
674	1	-13.221	-13.508	-0.765	# H
675	1	-14.242	-14.621	-0.868	# H
676	4	3.835	-17.724	-22.712	# O
677	1	3.874	-18.018	-21.802	# H
678	1	4.544	-18.199	-23.147	# H
679	4	-12.164	-18.9	0.856	# O
680	1	-12.774	-18.196	1.074	# H
681	1	-12.706	-19.564	0.43	# H
682	4	-2.922	-15.609	4.484	# O
683	1	-2.036	-15.969	4.431	# H
684	1	-3.496	-16.364	4.359	# H
685	4	-7.159	-19.195	-6.648	# O
686	1	-6.256	-19.376	-6.911	# H
687	1	-7.21	-18.24	-6.605	# H
688	4	-9.1	-5.589	-0.134	# O
689	1	-9.408	-6.158	0.571	# H
690	1	-8.146	-5.606	-0.057	# H
691	4	-12.686	-7.158	-6.525	# O
692	1	-13.396	-7.209	-7.165	# H
693	1	-12.036	-6.586	-6.933	# H
694	4	-3.419	-14.903	-11.442	# O
695	1	-4.194	-14.481	-11.071	# H
696	1	-3.296	-14.477	-12.29	# H
697	4	-21.953	-12.123	0.609	# O
698	1	-21.461	-12.271	-0.198	# H
699	1	-22.264	-12.992	0.864	# H
700	4	-10.316	4.243	1.701	# O
701	1	-9.623	4.776	1.31	# H
702	1	-10.658	4.781	2.415	# H
703	4	-19.322	-1.376	-24.918	# O
704	1	-18.901	-1.127	-24.095	# H
705	1	-18.612	-1.731	-25.452	# H
706	4	-21.968	-6.728	-23.567	# O
707	1	-21.839	-5.78	-23.538	# H
708	1	-21.123	-7.077	-23.848	# H
709	4	-19.332	-16.821	-6.748	# O
710	1	-18.733	-17.117	-6.062	# H
711	1	-19.807	-17.61	-7.008	# H
712	4	-19.085	-18.732	-1.824	# O
713	1	-19.132	-19.688	-1.839	# H
714	1	-19.738	-18.449	-2.463	# H
715	4	-21.441	-12.214	-21.725	# O
716	1	-22.274	-12.582	-21.428	# H
717	1	-21.534	-11.271	-21.589	# H
718	4	-12.916	-22.708	0.655	# O
719	1	-13.101	-22.654	1.592	# H
720	1	-13.321	-21.924	0.284	# H
721	4	-21.523	-15.393	2.147	# O
722	1	-21.287	-16.279	1.873	# H
723	1	-20.898	-15.181	2.84	# H
724	4	-4.88	-21.159	-9.973	# O
725	1	-4.388	-20.495	-10.456	# H
726	1	-5.732	-21.19	-10.408	# H
727	4	-15.846	4.693	-2.496	# O
728	1	-15.061	5.238	-2.446	# H
729	1	-15.828	4.326	-3.38	# H
730	4	-14.706	-8.074	1.236	# O
731	1	-14.383	-8.612	0.512	# H
732	1	-14.461	-7.18	0.998	# H
733	4	-19.3	-18.435	2.965	# O
734	1	-18.723	-18.212	2.235	# H
735	1	-18.766	-18.289	3.746	# H
736	4	-15.973	-14.896	-1.597	# O
737	1	-16.631	-14.303	-1.234	# H
738	1	-16.459	-15.692	-1.813	# H
739	4	-22.36	-15.808	-12.345	# O
740	1	-22.871	-15.187	-11.827	# H
741	1	-23.012	-16.389	-12.735	# H
742	4	-14.876	-23.233	-21.588	# O
743	1	-15.426	-23.162	-22.369	# H
744	1	-14.022	-22.902	-21.866	# H
745	4	-9.439	0.554	1.286	# O
746	1	-10.174	0.001	1.022	# H
747	1	-8.906	0.638	0.495	# H
748	4	-17.841	-17.856	0.541	# O
749	1	-18.322	-17.97	-0.278	# H
750	1	-17.722	-16.91	0.62	# H
751	4	-10.685	-14.176	0.0	# O
752	1	-11.523	-14.31	-0.442	# H
753	1	-10.386	-15.058	0.22	# H
754	4	-0.228	-18.926	-7.854	# O
755	1	-1.167	-18.966	-8.036	# H
756	1	0.186	-19.255	-8.652	# H
757	4	-19.839	-13.527	-9.882	# O
758	1	-20.603	-13.947	-9.488	# H
759	1	-19.089	-13.973	-9.487	# H
760	4	-8.691	-7.15	-6.35	# O
761	1	-8.526	-6.462	-6.996	# H
762	1	-8.329	-7.942	-6.746	# H
763	4	-13.573	-23.582	-2.636	# O
764	1	-13.198	-23.701	-1.763	# H
765	1	-12.823	-23.376	-3.194	# H
766	4	-20.622	-22.961	-2.408	# O
767	1	-19.951	-22.409	-2.005	# H
768	1	-21.242	-22.342	-2.792	# H
769	4	-17.194	-8.452	-17.936	# O
770	1	-17.381	-9.382	-17.811	# H
771	1	-17.163	-8.091	-17.05	# H
772	4	-15.45	-10.151	2.991	# O
773	1	-15.027	-9.386	2.6	# H
774	1	-15.936	-9.801	3.738	# H
775	4	-23.221	-24.37	3.936	# O
776	1	-22.421	-23.924	4.214	# H
777	1	-23.888	-23.683	3.928	# H
778	4	-12.265	-12.782	-6.042	# O
779	1	-12.767	-13.572	-6.239	# H
780	1	-12.344	-12.245	-6.831	# H
781	4	-21.957	2.96	3.57	# O
782	1	-21.73	2.766	2.66	# H
783	1	-22.091	3.907	3.587	# H
784	4	-16.173	-5.717	3.873	# O
785	1	-15.936	-6.231	4.645	# H
786	1	-16.768	-5.045	4.205	# H
787	4	-14.184	-20.486	-0.294	# O
788	1	-15.083	-20.423	0.029	# H
789	1	-14.274	-20.532	-1.246	# H
790	4	-16.837	-13.588	4.517	# O
791	1	-15.889	-13.458	4.525	# H
792	1	-17.006	-14.174	5.255	# H
793	4	-17.585	-16.749	-2.461	# O
794	1	-17.992	-17.607	-2.343	# H
795	1	-18.098	-16.333	-3.154	# H
796	4	-19.037	-22.51	4.652	# O
797	1	-19.593	-22.582	5.427	# H
798	1	-19.521	-22.968	3.965	# H
799	4	3.938	-25.091	2.368	# O
800	1	4.308	-24.347	2.843	# H
801	1	4.463	-25.152	1.57	# H
802	4	-6.169	-21.465	-2.65	# O
803	1	-6.137	-22.379	-2.366	# H
804	1	-5.659	-21.448	-3.46	# H
805	4	-11.962	-10.594	-21.759	# O
806	1	-11.566	-10.319	-22.585	# H
807	1	-12.394	-11.423	-21.964	# H
808	4	-10.338	-23.352	-0.672	# O
809	1	-9.697	-23.445	0.033	# H
810	1	-11.105	-22.966	-0.249	# H
811	4	-15.776	-14.164	-4.199	# O
812	1	-16.7	-14.007	-4.393	# H
813	1	-15.768	-14.452	-3.286	# H
814	4	-16.807	-7.843	-1.41	# O
815	1	-15.927	-7.928	-1.044	# H
816	1	-17.021	-6.915	-1.309	# H
817	4	-17.785	-16.99	-19.614	# O
818	1	-18.354	-16.238	-19.449	# H
819	1	-17.027	-16.847	-19.048	# H
820	4	5.12	-16.831	-13.578	# O
821	1	5.197	-17.745	-13.853	# H
822	1	4.298	-16.532	-13.966	# H
823	4	-3.931	-15.356	-22.986	# O
824	1	-3.463	-15.979	-22.431	# H
825	1	-3.451	-15.365	-23.815	# H
826	4	-20.101	-6.143	-18.509	# O
827	1	-19.704	-5.298	-18.296	# H
828	1	-19.587	-6.47	-19.247	# H
829	4	-24.118	4.137	-23.783	# O
830	1	-23.818	4.649	-24.534	# H
831	1	-23.958	3.227	-24.033	# H
832	4	-18.087	-20.426	-9.529	# O
833	1	-18.569	-19.874	-10.144	# H
834	1	-18.714	-20.611	-8.83	# H
835	4	-9.745	-16.717	0.333	# O
836	1	-10.459	-17.35	0.404	# H
837	1	-9.274	-16.792	1.163	# H
838	4	-8.844	-8.161	-18.087	# O
839	1	-9.549	-8.455	-18.665	# H
840	1	-9.286	-7.919	-17.273	# H
841	4	-23.379	-15.335	0.206	# O
842	1	-22.67	-15.459	0.837	# H
843	1	-22.943	-15.028	-0.588	# H
844	4	-9.553	-24.835	-11.771	# O
845	1	-8.888	-25.485	-11.542	# H
846	1	-9.408	-24.116	-11.157	# H
847	4	-0.969	-5.616	-3.59	# O
848	1	-0.711	-6.5	-3.328	# H
849	1	-1.824	-5.484	-3.179	# H
850	4	-10.6	-6.801	-14.26	# O
851	1	-10.625	-6.853	-13.305	# H
852	1	-10.709	-7.707	-14.552	# H
853	4	-19.881	-20.99	1.873	# O
854	1	-20.809	-20.855	1.682	# H
855	1	-19.647	-20.266	2.453	# H
856	4	-20.428	-12.235	-1.655	# O
857	1	-20.469	-11.289	-1.513	# H
858	1	-20.112	-12.328	-2.554	# H
859	4	-3.454	-22.717	-0.694	# O
860	1	-3.801	-22.88	-1.571	# H
861	1	-3.553	-23.552	-0.237	# H
862	4	-10.363	-1.853	-14.834	# O
863	1	-10.175	-1.388	-15.65	# H
864	1	-10.24	-2.777	-15.051	# H
865	4	-9.68	-12.941	-8.666	# O
866	1	-10.061	-12.183	-8.222	# H
867	1	-8.823	-13.054	-8.255	# H
868	4	-2.703	-7.185	-1.192	# O
869	1	-2.813	-7.97	-0.655	# H
870	1	-2.28	-6.554	-0.611	# H
871	4	-15.28	-7.732	-24.356	# O
872	1	-14.515	-8.107	-24.792	# H
873	1	-14.918	-7.235	-23.622	# H
874	4	-15.353	2.831	-0.028	# O
875	1	-15.539	2.581	-0.933	# H
876	1	-14.606	3.426	-0.092	# H
877	4	-17.785	-13.181	-0.606	# O
878	1	-18.626	-12.86	-0.934	# H
879	1	-17.436	-12.455	-0.09	# H
880	4	-24.829	-16.188	-4.629	# O
881	1	-25.113	-16.991	-4.193	# H
882	1	-25.015	-15.493	-3.998	# H
883	4	-13.631	-15.066	-6.245	# O
884	1	-14.245	-15.724	-6.57	# H
885	1	-13.783	-15.041	-5.3	# H
886	4	-10.609	-4.061	-23.949	# O
887	1	-11.479	-3.776	-24.228	# H
888	1	-10.147	-4.255	-24.764	# H
889	4	-14.219	-15.029	-9.645	# O
890	1	-13.286	-14.836	-9.739	# H
891	1	-14.249	-15.807	-9.089	# H
892	4	-21.439	-17.805	1.044	# O
893	1	-20.639	-18.324	1.128	# H
894	1	-21.585	-17.741	0.1	# H
895	4	-5.168	-9.247	-11.913	# O
896	1	-4.409	-9.295	-11.332	# H
897	1	-5.702	-10.005	-11.674	# H
898	4	-24.005	-10.816	4.639	# O
899	1	-23.457	-10.052	4.457	# H
900	1	-24.047	-10.859	5.594	# H
901	4	-13.65	-11.802	3.884	# O
902	1	-14.29	-11.255	3.429	# H
903	1	-13.092	-12.149	3.188	# H
904	4	3.437	-23.679	-7.228	# O
905	1	3.38	-24.603	-6.984	# H
906	1	3.383	-23.208	-6.396	# H
907	4	-8.033	-8.382	-2.37	# O
908	1	-8.189	-7.459	-2.169	# H
909	1	-7.133	-8.408	-2.694	# H
910	4	1.934	-13.088	-23.139	# O
911	1	1.925	-12.513	-22.373	# H
912	1	2.638	-13.712	-22.964	# H
913	4	-9.162	-21.685	-23.507	# O
914	1	-8.603	-22.461	-23.545	# H
915	1	-9.507	-21.594	-24.395	# H
916	4	-24.121	-21.578	-1.04	# O
917	1	-24.44	-22.455	-1.251	# H
918	1	-23.358	-21.457	-1.606	# H
919	4	-11.103	-5.276	-7.75	# O
920	1	-11.176	-4.471	-8.263	# H
921	1	-10.291	-5.682	-8.055	# H
922	4	-14.477	-17.818	-9.073	# O
923	1	-14.452	-18.672	-8.641	# H
924	1	-14.855	-17.996	-9.934	# H